 Gaussian 16, Revision A.03,
 Gaussian 16:  ES64L-G16RevA.03 25-Dec-2016

 ----------------------------------------------------------------------
 #p td=(triplets,nstates=20) Geom=Checkpoint Guess=Read LC-wPBE/6-31g(d
 ,p) IOP(3/107=0166600000) IOP(3/108=0166600000)
 ----------------------------------------------------------------------

 -------------------------------------------------------------
 Tuning input file generated by awtune with parameters: w01666
 -------------------------------------------------------------
 Structure from the checkpoint file:  "qpp1_h_tuned_td_triplet.chk"
 Charge =  0 Multiplicity = 1

                         Standard orientation:
 ---------------------------------------------------------------------
 Center     Atomic      Atomic             Coordinates (Angstroms)
 Number     Number       Type             X           Y           Z
 ---------------------------------------------------------------------
      1          6           0       -0.728487    0.000000    0.000001
      2          6           0       -1.449678   -1.222998   -0.001140
      3          6           0       -0.719781   -2.498730   -0.002017
      4          6           0        0.719781   -2.498730    0.002019
      5          6           0        1.449678   -1.222998    0.001144
      6          6           0        0.728487   -0.000000    0.000001
      7          6           0        0.715094   -4.793265    0.006346
      8          6           0       -0.715094   -4.793265   -0.006348
      9          6           0       -1.400518   -6.037967    0.000436
     10          1           0       -2.492105   -6.012425    0.040247
     11          6           0        1.400518   -6.037967   -0.000440
     12          1           0        2.492105   -6.012425   -0.040251
     13          7           0        1.419724   -3.632534    0.006698
     14          7           0       -1.419724   -3.632534   -0.006698
     15          6           0       -1.449678    1.222998    0.001144
     16          6           0        1.449678    1.222998   -0.001140
     17          6           0       -2.852745    1.209394    0.000980
     18          6           0       -2.852745   -1.209394   -0.000975
     19          1           0       -3.373181    2.169071    0.001299
     20          1           0       -3.373181   -2.169071   -0.001293
     21          6           0        2.852745   -1.209394    0.000980
     22          6           0        2.852745    1.209394   -0.000975
     23          1           0        3.373181   -2.169071    0.001299
     24          1           0        3.373181    2.169071   -0.001293
     25          6           0        0.719781    2.498730   -0.002017
     26          6           0       -0.719781    2.498730    0.002019
     27          6           0        0.715094    4.793265   -0.006348
     28          7           0        1.419724    3.632534   -0.006698
     29          7           0       -1.419724    3.632534    0.006698
     30          6           0       -0.715094    4.793265    0.006346
     31          6           0        0.724269   -7.247960   -0.009064
     32          6           0       -0.724269   -7.247960    0.009058
     33          6           0       -1.400518    6.037967   -0.000440
     34          6           0        1.400518    6.037967    0.000436
     35          6           0        0.724269    7.247960    0.009058
     36          6           0       -0.724269    7.247960   -0.009064
     37          1           0       -2.492105    6.012425   -0.040251
     38          1           0        2.492105    6.012425    0.040247
     39          6           0       -3.164877   10.804389   -0.237307
     40          6           0       -3.431518    9.807309    0.740799
     41          6           0       -2.618721    8.675152    0.808521
     42          6           0       -1.528427    8.502828   -0.073583
     43          6           0       -1.275608    9.491715   -1.028517
     44          6           0       -2.089304   10.630814   -1.111545
     45          1           0       -2.808918    7.909662    1.562539
     46          1           0       -0.441549    9.377907   -1.723388
     47          1           0       -1.874777   11.383715   -1.871080
     48          6           0        1.275608    9.491716    1.028509
     49          6           0        1.528427    8.502828    0.073576
     50          6           0        2.618721    8.675151   -0.808528
     51          6           0        3.431519    9.807307   -0.740807
     52          6           0        3.164879   10.804388    0.237298
     53          6           0        2.089304   10.630815    1.111535
     54          1           0        0.441549    9.377911    1.723379
     55          1           0        2.808917    7.909660   -1.562546
     56          1           0        1.874775   11.383720    1.871066
     57          6           0       -1.528427   -8.502828    0.073576
     58          6           0       -1.275608   -9.491716    1.028509
     59          6           0       -2.618721   -8.675151   -0.808528
     60          6           0       -2.089304  -10.630815    1.111535
     61          1           0       -0.441549   -9.377911    1.723379
     62          6           0       -3.431519   -9.807307   -0.740807
     63          1           0       -2.808917   -7.909660   -1.562546
     64          6           0       -3.164879  -10.804388    0.237298
     65          1           0       -1.874775  -11.383720    1.871066
     66          6           0        1.528427   -8.502828   -0.073583
     67          6           0        1.275608   -9.491715   -1.028517
     68          6           0        2.618721   -8.675152    0.808521
     69          6           0        2.089304  -10.630814   -1.111545
     70          1           0        0.441549   -9.377907   -1.723388
     71          6           0        3.431518   -9.807309    0.740799
     72          1           0        2.808918   -7.909662    1.562539
     73          6           0        3.164877  -10.804389   -0.237307
     74          1           0        1.874777  -11.383715   -1.871080
     75          8           0        4.012616   11.874915    0.227704
     76          8           0        4.496442   10.061810   -1.558184
     77          6           0        3.775897   12.889941    1.193754
     78          6           0        4.801558    9.082012   -2.541200
     79          1           0        3.864761   12.502576    2.224765
     80          1           0        4.549025   13.650810    1.026010
     81          1           0        2.779126   13.350164    1.068392
     82          1           0        5.679459    9.460517   -3.080428
     83          1           0        5.047710    8.106393   -2.084516
     84          1           0        3.968892    8.943407   -3.254417
     85          8           0       -4.496442   10.061813    1.558175
     86          8           0       -4.012615   11.874915   -0.227716
     87          8           0        4.496442  -10.061813    1.558175
     88          8           0        4.012615  -11.874915   -0.227716
     89          8           0       -4.496442  -10.061810   -1.558184
     90          8           0       -4.012616  -11.874915    0.227704
     91          6           0       -3.775856   12.889972   -1.193724
     92          6           0       -4.801536    9.082033    2.541216
     93          6           0       -4.801558   -9.082012   -2.541200
     94          6           0       -3.775897  -12.889941    1.193754
     95          6           0        3.775856  -12.889972   -1.193724
     96          6           0        4.801536   -9.082033    2.541216
     97          1           0       -2.779068   13.350152   -1.068339
     98          1           0       -3.864729   12.502652   -2.224752
     99          1           0       -4.548957   13.650862   -1.025954
    100          1           0       -5.679422    9.460551    3.080459
    101          1           0       -5.047702    8.106407    2.084556
    102          1           0       -3.968852    8.943439    3.254414
    103          1           0       -3.968892   -8.943407   -3.254417
    104          1           0       -5.679459   -9.460517   -3.080428
    105          1           0       -5.047710   -8.106393   -2.084516
    106          1           0       -4.549025  -13.650810    1.026010
    107          1           0       -3.864761  -12.502576    2.224765
    108          1           0       -2.779126  -13.350164    1.068392
    109          1           0        2.779068  -13.350152   -1.068339
    110          1           0        3.864729  -12.502652   -2.224752
    111          1           0        4.548957  -13.650862   -1.025954
    112          1           0        3.968852   -8.943439    3.254414
    113          1           0        5.679422   -9.460551    3.080459
    114          1           0        5.047702   -8.106407    2.084556
    115          6           0       -3.548899    0.000000    0.000003
    116          1           0       -4.641715    0.000000    0.000004
    117          6           0        3.548899   -0.000000    0.000003
    118          1           0        4.641715   -0.000000    0.000004
 ---------------------------------------------------------------------

 SCF Done:  E(RLC-wPBE) =  -3132.03920438     A.U. after   13 cycles

 Excitation energies and oscillator strengths:

 Excited State   1:      Triplet-B      2.2640 eV  547.64 nm  f=0.0000  <S**2>=2.000
     236 -> 251       -0.14401
     237 -> 250        0.16878
     241 -> 250        0.11068
     243 -> 250       -0.29193
     244 -> 251        0.32312
     245 -> 252       -0.19399
     246 -> 250       -0.25103
     247 -> 251       -0.27860
     249 -> 252       -0.12876
 This state for optimization and/or second-order correction.
 Total Energy, E(TD-HF/TD-DFT) =  -3131.95600481
 Copying the excited state density for this state as the 1-particle RhoCI density.

 Excited State   2:      Triplet-A      2.3887 eV  519.04 nm  f=0.0000  <S**2>=2.000
     236 -> 250        0.19770
     237 -> 251       -0.15928
     241 -> 251       -0.11202
     243 -> 251        0.29616
     244 -> 250       -0.30227
     246 -> 251        0.28051
     247 -> 250        0.30732

 Excited State   3:      Triplet-A      2.4953 eV  496.87 nm  f=0.0000  <S**2>=2.000
     235 -> 251       -0.19586
     242 -> 251       -0.13082
     245 -> 250        0.41102
     248 -> 251       -0.24234
     249 -> 250        0.40915

 Excited State   4:      Triplet-B      2.5819 eV  480.21 nm  f=0.0000  <S**2>=2.000
     235 -> 250       -0.20356
     242 -> 250       -0.14146
     245 -> 251        0.35597
     248 -> 250       -0.29388
     249 -> 251        0.43489

 Excited State   5:      Triplet-B      2.5866 eV  479.33 nm  f=0.0000  <S**2>=2.000
     238 -> 251       -0.16899
     240 -> 251        0.44684
     241 -> 250        0.47115
     243 -> 250        0.11724

 Excited State   6:      Triplet-A      2.5868 eV  479.29 nm  f=0.0000  <S**2>=2.000
     238 -> 250       -0.17395
     240 -> 250        0.46028
     241 -> 251        0.45721
     243 -> 251        0.11462

 Excited State   7:      Triplet-B      3.0284 eV  409.40 nm  f=0.0000  <S**2>=2.000
     234 -> 250        0.22016
     236 -> 251       -0.23407
     238 -> 251       -0.13734
     239 -> 252        0.10154
     244 -> 251       -0.11758
     244 -> 254       -0.18422
     245 -> 252        0.35061
     246 -> 250       -0.18551
     246 -> 256        0.10617
     247 -> 251       -0.15838
     247 -> 254        0.11994
     249 -> 252        0.15196
     249 -> 255        0.11213

 Excited State   8:      Triplet-A      3.0559 eV  405.73 nm  f=0.0000  <S**2>=2.000
     233 -> 250       -0.12406
     234 -> 252        0.10222
     239 -> 250        0.11508
     245 -> 250        0.37585
     246 -> 255        0.13758
     247 -> 260       -0.10055
     248 -> 251        0.36032
     248 -> 258       -0.13843
     249 -> 250       -0.18496
     249 -> 256        0.18715

 Excited State   9:      Triplet-B      3.1407 eV  394.77 nm  f=0.0000  <S**2>=2.000
     239 -> 251        0.10730
     245 -> 251        0.44264
     246 -> 253       -0.12847
     246 -> 260       -0.11384
     247 -> 255        0.14294
     248 -> 250        0.30638
     248 -> 256       -0.16842
     249 -> 251       -0.11529
     249 -> 254        0.12190
     249 -> 258        0.16191

 Excited State  10:      Triplet-B      3.2181 eV  385.27 nm  f=0.0000  <S**2>=2.000
     244 -> 251        0.31294
     245 -> 252        0.21244
     246 -> 256       -0.10683
     246 -> 263        0.10215
     247 -> 258       -0.12053
     248 -> 253       -0.26394
     248 -> 260       -0.14786
     249 -> 252        0.31994
     249 -> 255       -0.19699

 Excited State  11:      Triplet-A      3.2346 eV  383.31 nm  f=0.0000  <S**2>=2.000
     243 -> 251       -0.11815
     244 -> 250        0.28051
     246 -> 251        0.10400
     246 -> 258       -0.15601
     247 -> 256       -0.16368
     247 -> 263        0.11093
     248 -> 252       -0.22178
     248 -> 255        0.25971
     249 -> 253        0.30071
     249 -> 260        0.18032

 Excited State  12:      Triplet-B      3.3856 eV  366.21 nm  f=0.0000  <S**2>=2.000
     236 -> 251        0.24218
     238 -> 251        0.16716
     243 -> 250        0.18787
     244 -> 251        0.25784
     244 -> 254        0.20826
     245 -> 252        0.22575
     247 -> 251       -0.17467
     248 -> 253        0.16057
     248 -> 260        0.13998
     249 -> 255        0.18586

 Excited State  13:      Triplet-A      3.4918 eV  355.08 nm  f=0.0000  <S**2>=2.000
     234 -> 251       -0.13711
     236 -> 250        0.31777
     238 -> 250        0.23339
     243 -> 251        0.11555
     244 -> 250        0.38583
     244 -> 256        0.14156
     246 -> 251        0.14133
     248 -> 252        0.11404
     248 -> 255       -0.11109
     249 -> 253       -0.13964

 Excited State  14:      Triplet-A      3.5159 eV  352.64 nm  f=0.0000  <S**2>=2.000
     233 -> 250       -0.14112
     235 -> 251        0.15378
     242 -> 251        0.12304
     243 -> 252        0.16599
     246 -> 252        0.24490
     246 -> 255       -0.17057
     247 -> 253        0.23857
     247 -> 260        0.13366
     248 -> 251        0.14543
     248 -> 258        0.16878
     248 -> 264       -0.15564
     249 -> 256       -0.10870
     249 -> 263        0.18903

 Excited State  15:      Triplet-B      3.5503 eV  349.22 nm  f=0.0000  <S**2>=2.000
     244 -> 252        0.36337
     245 -> 251       -0.13958
     245 -> 254       -0.10218
     246 -> 253       -0.19844
     247 -> 252       -0.29769
     247 -> 255        0.10555
     248 -> 250       -0.17220
     248 -> 263        0.13172
     249 -> 258        0.10934
     249 -> 264       -0.11398

 Excited State  16:      Triplet-B      3.6679 eV  338.02 nm  f=0.0000  <S**2>=2.000
     235 -> 250        0.10469
     238 -> 252        0.12901
     244 -> 252        0.40068
     245 -> 251        0.15826
     246 -> 260        0.13050
     247 -> 252       -0.10247
     247 -> 255       -0.13641
     248 -> 250        0.17909
     248 -> 256        0.10921
     248 -> 263       -0.15229
     249 -> 258       -0.12576
     249 -> 264        0.13579

 Excited State  17:      Triplet-A      3.6783 eV  337.07 nm  f=0.0000  <S**2>=2.000
     235 -> 252        0.20894
     242 -> 252        0.14951
     243 -> 251       -0.15517
     245 -> 253       -0.26520
     246 -> 251        0.23679
     247 -> 250        0.30690
     248 -> 252        0.19925
     249 -> 253       -0.21028

 Excited State  18:      Triplet-B      3.7778 eV  328.19 nm  f=0.0000  <S**2>=2.000
     243 -> 261        0.10821
     244 -> 262        0.10230
     245 -> 259       -0.12909
     246 -> 261       -0.25156
     247 -> 262        0.24468
     248 -> 257        0.35442
     248 -> 260       -0.13447
     249 -> 255        0.10955
     249 -> 259        0.34892

 Excited State  19:      Triplet-A      3.7781 eV  328.16 nm  f=0.0000  <S**2>=2.000
     243 -> 262        0.10774
     244 -> 261        0.10350
     245 -> 257       -0.12906
     246 -> 262       -0.25029
     247 -> 261        0.24701
     248 -> 255        0.11906
     248 -> 259        0.36409
     249 -> 257        0.34107
     249 -> 260       -0.12764

 Excited State  20:      Triplet-A      3.8064 eV  325.72 nm  f=0.0000  <S**2>=2.000
     235 -> 251        0.12869
     241 -> 252       -0.10599
     242 -> 251        0.17636
     242 -> 262       -0.10219
     243 -> 259        0.10360
     244 -> 257        0.10530
     245 -> 250       -0.13091
     245 -> 261       -0.11031
     246 -> 259       -0.22307
     247 -> 257        0.19007
     247 -> 260       -0.11670
     248 -> 251       -0.10368
     248 -> 262        0.25367
     249 -> 250        0.13873
     249 -> 261        0.24488

 The electronic state is 1-A.
 Alpha  occ. eigenvalues --  -18.89745 -18.89745 -18.89745 -18.89745 -18.89652
 Alpha  occ. eigenvalues --  -18.89652 -18.89652 -18.89652 -14.10298 -14.10298
 Alpha  occ. eigenvalues --  -14.10298 -14.10298 -10.04890 -10.04890 -10.04890
 Alpha  occ. eigenvalues --  -10.04890 -10.04859 -10.04859 -10.04859 -10.04859
 Alpha  occ. eigenvalues --  -10.04508 -10.04508 -10.04508 -10.04508 -10.04407
 Alpha  occ. eigenvalues --  -10.04407 -10.04407 -10.04407 -10.04124 -10.04124
 Alpha  occ. eigenvalues --  -10.04100 -10.04100 -10.03203 -10.03203 -10.03177
 Alpha  occ. eigenvalues --  -10.03177 -10.01581 -10.01560 -10.01551 -10.01551
 Alpha  occ. eigenvalues --  -10.01528 -10.01528 -10.00899 -10.00898 -10.00898
 Alpha  occ. eigenvalues --  -10.00898 -10.00027 -10.00027 -10.00026 -10.00026
 Alpha  occ. eigenvalues --   -9.99909  -9.99909  -9.99785  -9.99785  -9.99780
 Alpha  occ. eigenvalues --   -9.99780  -9.99736  -9.99736  -9.99736  -9.99736
 Alpha  occ. eigenvalues --   -9.99317  -9.99317  -9.99317  -9.99317  -9.99285
 Alpha  occ. eigenvalues --   -9.99285  -9.99285  -9.99285  -9.98923  -9.98923
 Alpha  occ. eigenvalues --   -9.98922  -9.98922  -1.07559  -1.07559  -1.07559
 Alpha  occ. eigenvalues --   -1.07559  -1.05681  -1.05681  -1.05681  -1.05681
 Alpha  occ. eigenvalues --   -0.98763  -0.98670  -0.92163  -0.92031  -0.90401
 Alpha  occ. eigenvalues --   -0.88633  -0.88297  -0.86553  -0.86430  -0.86396
 Alpha  occ. eigenvalues --   -0.85827  -0.85217  -0.82659  -0.81266  -0.79955
 Alpha  occ. eigenvalues --   -0.79779  -0.79726  -0.78656  -0.78542  -0.77396
 Alpha  occ. eigenvalues --   -0.77296  -0.77135  -0.76728  -0.76099  -0.75820
 Alpha  occ. eigenvalues --   -0.75177  -0.74796  -0.74793  -0.72948  -0.72935
 Alpha  occ. eigenvalues --   -0.72917  -0.72876  -0.71984  -0.71809  -0.71411
 Alpha  occ. eigenvalues --   -0.71294  -0.69596  -0.68217  -0.67631  -0.67053
 Alpha  occ. eigenvalues --   -0.66046  -0.64217  -0.63884  -0.63403  -0.62947
 Alpha  occ. eigenvalues --   -0.62823  -0.62721  -0.62560  -0.62221  -0.62185
 Alpha  occ. eigenvalues --   -0.61630  -0.60759  -0.60396  -0.59614  -0.57927
 Alpha  occ. eigenvalues --   -0.57895  -0.57709  -0.57493  -0.56980  -0.56639
 Alpha  occ. eigenvalues --   -0.55972  -0.55963  -0.55032  -0.54213  -0.54212
 Alpha  occ. eigenvalues --   -0.53554  -0.53484  -0.53095  -0.53091  -0.52814
 Alpha  occ. eigenvalues --   -0.52027  -0.51466  -0.51251  -0.50917  -0.50763
 Alpha  occ. eigenvalues --   -0.50751  -0.50744  -0.50720  -0.50198  -0.49533
 Alpha  occ. eigenvalues --   -0.49514  -0.49514  -0.49511  -0.49511  -0.49031
 Alpha  occ. eigenvalues --   -0.48702  -0.48695  -0.48652  -0.48589  -0.48421
 Alpha  occ. eigenvalues --   -0.48173  -0.48159  -0.47941  -0.47448  -0.47382
 Alpha  occ. eigenvalues --   -0.47107  -0.46913  -0.46688  -0.46631  -0.46188
 Alpha  occ. eigenvalues --   -0.46059  -0.45984  -0.45734  -0.45115  -0.44857
 Alpha  occ. eigenvalues --   -0.44326  -0.44304  -0.44274  -0.43871  -0.43507
 Alpha  occ. eigenvalues --   -0.43500  -0.43386  -0.42767  -0.42752  -0.42659
 Alpha  occ. eigenvalues --   -0.42597  -0.42309  -0.41317  -0.40900  -0.40841
 Alpha  occ. eigenvalues --   -0.40558  -0.40494  -0.40450  -0.40241  -0.40140
 Alpha  occ. eigenvalues --   -0.40007  -0.39499  -0.39420  -0.39420  -0.38620
 Alpha  occ. eigenvalues --   -0.37986  -0.37722  -0.37314  -0.36916  -0.36907
 Alpha  occ. eigenvalues --   -0.36830  -0.36771  -0.36673  -0.36545  -0.36215
 Alpha  occ. eigenvalues --   -0.36071  -0.35979  -0.35979  -0.35906  -0.35885
 Alpha  occ. eigenvalues --   -0.35834  -0.35631  -0.35626  -0.35214  -0.34147
 Alpha  occ. eigenvalues --   -0.33892  -0.33498  -0.33046  -0.32210  -0.30369
 Alpha  occ. eigenvalues --   -0.30179  -0.29030  -0.28629  -0.28558  -0.28105
 Alpha  occ. eigenvalues --   -0.28096  -0.28080  -0.27746  -0.27085  -0.26284
 Alpha  occ. eigenvalues --   -0.25081  -0.25043  -0.23779  -0.23582
 Alpha virt. eigenvalues --   -0.03528  -0.03458  -0.00941   0.01376   0.02573
 Alpha virt. eigenvalues --    0.03927   0.04570   0.05277   0.05306   0.05472
 Alpha virt. eigenvalues --    0.06200   0.06441   0.06448   0.07180   0.07411

 Mulliken charges:
               1
     1  C    0.037482
     2  C    0.022188
     3  C    0.241443
     4  C    0.241443
     5  C    0.022187
     6  C    0.037482
     7  C    0.269168
     8  C    0.269168
     9  C   -0.161737
    10  H    0.114643
    11  C   -0.161737
    12  H    0.114643
    13  N   -0.570496
    14  N   -0.570496
    15  C    0.022187
    16  C    0.022188
    17  C   -0.119741
    18  C   -0.119741
    19  H    0.124412
    20  H    0.124412
    21  C   -0.119741
    22  C   -0.119741
    23  H    0.124412
    24  H    0.124412
    25  C    0.241443
    26  C    0.241443
    27  C    0.269168
    28  N   -0.570496
    29  N   -0.570496
    30  C    0.269168
    31  C    0.028999
    32  C    0.028999
    33  C   -0.161737
    34  C   -0.161737
    35  C    0.028999
    36  C    0.028999
    37  H    0.114643
    38  H    0.114643
    39  C    0.304191
    40  C    0.295890
    41  C   -0.174343
    42  C    0.006671
    43  C   -0.110362
    44  C   -0.160513
    45  H    0.103246
    46  H    0.103625
    47  H    0.100330
    48  C   -0.110362
    49  C    0.006671
    50  C   -0.174343
    51  C    0.295890
    52  C    0.304191
    53  C   -0.160514
    54  H    0.103625
    55  H    0.103246
    56  H    0.100330
    57  C    0.006671
    58  C   -0.110362
    59  C   -0.174343
    60  C   -0.160514
    61  H    0.103625
    62  C    0.295890
    63  H    0.103246
    64  C    0.304191
    65  H    0.100330
    66  C    0.006671
    67  C   -0.110362
    68  C   -0.174343
    69  C   -0.160513
    70  H    0.103625
    71  C    0.295890
    72  H    0.103246
    73  C    0.304191
    74  H    0.100330
    75  O   -0.466019
    76  O   -0.468938
    77  C   -0.142813
    78  C   -0.142273
    79  H    0.126935
    80  H    0.140057
    81  H    0.125858
    82  H    0.139892
    83  H    0.127137
    84  H    0.126260
    85  O   -0.468938
    86  O   -0.466019
    87  O   -0.468938
    88  O   -0.466019
    89  O   -0.468938
    90  O   -0.466019
    91  C   -0.142813
    92  C   -0.142273
    93  C   -0.142273
    94  C   -0.142813
    95  C   -0.142813
    96  C   -0.142273
    97  H    0.125859
    98  H    0.126935
    99  H    0.140057
   100  H    0.139892
   101  H    0.127137
   102  H    0.126260
   103  H    0.126260
   104  H    0.139892
   105  H    0.127137
   106  H    0.140057
   107  H    0.126935
   108  H    0.125858
   109  H    0.125859
   110  H    0.126935
   111  H    0.140057
   112  H    0.126260
   113  H    0.139892
   114  H    0.127137
   115  C   -0.109330
   116  H    0.104431
   117  C   -0.109330
   118  H    0.104431
 Sum of Mulliken charges =  -0.00000

 Dipole moment (field-independent basis, Debye):
    X=              0.0000    Y=              0.0000    Z=              0.0001  Tot=              0.0001
 Quadrupole moment (field-independent basis, Debye-Ang):
   XX=           -388.3716   YY=           -294.8155   ZZ=           -385.1450
   XY=              0.0011   XZ=              0.0000   YZ=              0.0000

 Normal termination of Gaussian 16 at Mon Oct 22 18:49:50 2018.
