 Gaussian 16, Revision A.03,
 Gaussian 16:  ES64L-G16RevA.03 25-Dec-2016

 ----------------------------------------------------------------------
 #p td=(singlets,nstates=20) Geom=Checkpoint Guess=Read LC-wPBE/6-31g(d
 ,p) IOP(3/107=0172600000) IOP(3/108=0172600000)
 ----------------------------------------------------------------------

 -------------------------------------------------------------
 Tuning input file generated by awtune with parameters: w01726
 -------------------------------------------------------------
 Structure from the checkpoint file:  "qpp1_h_half_tuned_td_singlet.chk"
 Charge =  0 Multiplicity = 1

                         Standard orientation:
 ---------------------------------------------------------------------
 Center     Atomic      Atomic             Coordinates (Angstroms)
 Number     Number       Type             X           Y           Z
 ---------------------------------------------------------------------
      1          6           0        5.864631    0.716748    0.082435
      2          6           0        7.103392    1.418753    0.163554
      3          6           0        7.103395   -1.418757   -0.163543
      4          6           0        5.864632   -0.716753   -0.082429
      5          6           0        4.643596    1.442761    0.165473
      6          6           0        4.643598   -1.442767   -0.165472
      7          6           0        4.668543    2.831215    0.325839
      8          6           0        7.090396    2.820505    0.325261
      9          1           0        3.715270    3.359521    0.386953
     10          1           0        8.043385    3.353857    0.387061
     11          6           0        7.090400   -2.820509   -0.325251
     12          6           0        4.668547   -2.831222   -0.325838
     13          1           0        8.043390   -3.353859   -0.387047
     14          1           0        3.715275   -3.359528   -0.386956
     15          6           0        3.367536   -0.716092   -0.080976
     16          6           0        3.367535    0.716084    0.080972
     17          6           0        1.073147   -0.710571   -0.076380
     18          7           0        2.234108   -1.410841   -0.157174
     19          7           0        2.234105    1.410832    0.157166
     20          6           0        1.073146    0.710560    0.076367
     21          6           0       -0.171316    1.390659    0.162539
     22          6           0       -0.171314   -1.390671   -0.162557
     23          6           0       -1.381021   -0.718067   -0.092849
     24          6           0       -1.381022    0.718054    0.092828
     25          1           0       -0.145691    2.470257    0.328075
     26          1           0       -0.145686   -2.470269   -0.328093
     27          6           0       -4.938060    3.114028    0.602677
     28          6           0       -3.943346    3.490554   -0.340669
     29          6           0       -2.810973    2.691844   -0.502224
     30          6           0       -2.636205    1.509088    0.250307
     31          6           0       -3.622677    1.148862    1.172085
     32          6           0       -4.762116    1.946724    1.348918
     33          1           0       -2.046855    2.966804   -1.230934
     34          1           0       -3.506878    0.241549    1.767613
     35          1           0       -5.513297    1.646650    2.080522
     36          6           0       -3.622671   -1.148879   -1.172115
     37          6           0       -2.636202   -1.509103   -0.250333
     38          6           0       -2.810972   -2.691859    0.502198
     39          6           0       -3.943346   -3.490567    0.340644
     40          6           0       -4.938058   -3.114042   -0.602706
     41          6           0       -4.762108   -1.946742   -1.348952
     42          1           0       -3.506870   -0.241567   -1.767644
     43          1           0       -2.046854   -2.966821    1.230907
     44          1           0       -5.513283   -1.646674   -2.080566
     45          8           0       -6.009087   -3.956333   -0.691420
     46          8           0       -4.200054   -4.640854    1.031640
     47          6           0       -7.021946   -3.610463   -1.625839
     48          6           0       -3.222978   -5.055555    1.976002
     49          1           0       -6.632852   -3.581937   -2.659499
     50          1           0       -7.783685   -4.396808   -1.548499
     51          1           0       -7.481655   -2.634112   -1.388790
     52          1           0       -3.602977   -5.988411    2.411776
     53          1           0       -2.246435   -5.249191    1.496872
     54          1           0       -3.085858   -4.308948    2.778939
     55          8           0       -4.200054    4.640839   -1.031670
     56          8           0       -6.009094    3.956315    0.691383
     57          6           0       -7.021866    3.610543    1.625932
     58          6           0       -3.222907    5.055618   -1.975923
     59          1           0       -7.481692    2.634229    1.388953
     60          1           0       -6.632644    3.581996    2.659543
     61          1           0       -7.783548    4.396952    1.548676
     62          1           0       -3.602862    5.988523   -2.411632
     63          1           0       -2.246394    5.249189   -1.496706
     64          1           0       -3.085743    4.309091   -2.778927
     65          6           0        5.888450    3.516005    0.405391
     66          1           0        5.893141    4.601500    0.531137
     67          6           0        5.888455   -3.516010   -0.405385
     68          1           0        5.893148   -4.601505   -0.531131
     69          6           0        8.335975    0.677008    0.078112
     70          1           0        9.277741    1.229340    0.141833
     71          6           0        8.335976   -0.677011   -0.078096
     72          1           0        9.277743   -1.229341   -0.141814
 ---------------------------------------------------------------------

 SCF Done:  E(RLC-wPBE) =  -1873.62430860     A.U. after   13 cycles

 Excitation energies and oscillator strengths:

 Excited State   1:      Singlet-A      3.0650 eV  404.52 nm  f=0.5018  <S**2>=0.000
     149 ->152         0.35439
     151 ->152         0.57316
 This state for optimization and/or second-order correction.
 Total Energy, E(TD-HF/TD-DFT) =  -1873.51167343
 Copying the excited state density for this state as the 1-particle RhoCI density.

 Excited State   2:      Singlet-A      3.1039 eV  399.44 nm  f=0.0014  <S**2>=0.000
     145 ->152        -0.22464
     147 ->152         0.66036

 Excited State   3:      Singlet-A      3.3972 eV  364.96 nm  f=0.0026  <S**2>=0.000
     144 ->152         0.13175
     148 ->152        -0.37684
     150 ->152         0.55082

 Excited State   4:      Singlet-A      3.4876 eV  355.50 nm  f=0.0049  <S**2>=0.000
     148 ->153         0.11704
     149 ->152         0.55873
     151 ->152        -0.35302

 Excited State   5:      Singlet-A      3.8318 eV  323.56 nm  f=0.0052  <S**2>=0.000
     144 ->152         0.16811
     145 ->152        -0.20830
     148 ->152         0.43985
     149 ->153        -0.26433
     150 ->152         0.31814
     151 ->153        -0.16308

 Excited State   6:      Singlet-A      4.0022 eV  309.79 nm  f=0.4258  <S**2>=0.000
     144 ->153         0.13659
     145 ->153        -0.20099
     148 ->153         0.42655
     149 ->152        -0.20870
     149 ->155         0.32545
     150 ->153        -0.21206
     151 ->155         0.12409

 Excited State   7:      Singlet-A      4.0173 eV  308.63 nm  f=0.3253  <S**2>=0.000
     148 ->152         0.31705
     148 ->155        -0.12217
     149 ->153         0.33688
     151 ->153         0.42382
     151 ->154         0.21395

 Excited State   8:      Singlet-A      4.0346 eV  307.30 nm  f=0.0005  <S**2>=0.000
     145 ->153        -0.20020
     147 ->153         0.61202
     147 ->154         0.20561

 Excited State   9:      Singlet-A      4.1143 eV  301.35 nm  f=0.1555  <S**2>=0.000
     143 ->152         0.29156
     144 ->153        -0.14780
     146 ->152         0.38324
     148 ->153         0.16839
     148 ->154         0.11355
     149 ->155        -0.13659
     150 ->153        -0.28324
     150 ->154        -0.22575
     151 ->152        -0.12098

 Excited State  10:      Singlet-A      4.1664 eV  297.58 nm  f=0.0026  <S**2>=0.000
     143 ->153        -0.12502
     149 ->153         0.43828
     151 ->153        -0.24992
     151 ->154        -0.39020

 Excited State  11:      Singlet-A      4.1871 eV  296.11 nm  f=0.0133  <S**2>=0.000
     144 ->152        -0.37849
     145 ->152         0.44715
     147 ->152         0.12493
     148 ->152         0.12634
     150 ->152         0.22172
     151 ->153        -0.13115

 Excited State  12:      Singlet-A      4.4574 eV  278.15 nm  f=0.7267  <S**2>=0.000
     144 ->153         0.13398
     145 ->153        -0.10279
     146 ->152         0.49721
     149 ->155         0.22509
     150 ->153         0.27661
     150 ->154         0.17243
     151 ->155         0.11328

 Excited State  13:      Singlet-A      4.5439 eV  272.86 nm  f=0.0042  <S**2>=0.000
     144 ->152         0.43287
     145 ->152         0.29081
     145 ->156        -0.13447
     146 ->154        -0.12272
     147 ->152         0.12495
     150 ->159        -0.13851
     151 ->153        -0.10571
     151 ->157         0.23863
     151 ->158         0.13068

 Excited State  14:      Singlet-A      4.5959 eV  269.77 nm  f=0.2068  <S**2>=0.000
     143 ->152         0.41052
     146 ->156         0.12692
     148 ->153         0.16837
     148 ->154         0.13835
     150 ->153         0.20667
     150 ->154         0.22758
     150 ->157         0.22641
     151 ->159        -0.23075

 Excited State  15:      Singlet-A      4.6154 eV  268.63 nm  f=0.0064  <S**2>=0.000
     142 ->152         0.21022
     149 ->154         0.50905
     149 ->157        -0.13195
     149 ->158         0.21148
     151 ->154         0.12380
     151 ->157        -0.20091

 Excited State  16:      Singlet-A      4.6636 eV  265.86 nm  f=0.0008  <S**2>=0.000
     141 ->152         0.67676
     147 ->154         0.11726

 Excited State  17:      Singlet-A      4.7366 eV  261.76 nm  f=0.0579  <S**2>=0.000
     143 ->153        -0.19577
     144 ->152        -0.24859
     145 ->152        -0.23973
     146 ->153        -0.17776
     148 ->152        -0.10168
     149 ->157        -0.12093
     150 ->159        -0.14882
     151 ->153        -0.20711
     151 ->154         0.21999
     151 ->157         0.30379

 Excited State  18:      Singlet-A      4.8530 eV  255.48 nm  f=0.1785  <S**2>=0.000
     143 ->152         0.30505
     146 ->152        -0.17367
     148 ->153        -0.31974
     149 ->155         0.34441
     150 ->154        -0.23223
     151 ->155         0.20094

 Excited State  19:      Singlet-A      4.8796 eV  254.09 nm  f=0.0013  <S**2>=0.000
     140 ->152         0.11190
     143 ->152         0.21241
     145 ->153        -0.18628
     145 ->154        -0.14837
     146 ->152        -0.15703
     146 ->160         0.13159
     148 ->153         0.13653
     149 ->155        -0.16555
     150 ->153         0.14616
     150 ->154         0.10203
     150 ->157        -0.23164
     150 ->158        -0.15407
     151 ->156         0.12690
     151 ->159         0.30873

 Excited State  20:      Singlet-A      4.8983 eV  253.12 nm  f=0.0345  <S**2>=0.000
     140 ->153         0.16989
     142 ->152        -0.20129
     143 ->153         0.37327
     144 ->152        -0.11499
     146 ->153         0.15081
     149 ->154         0.18687
     150 ->159        -0.11469
     151 ->154        -0.19302
     151 ->157         0.18848
     151 ->158         0.22893

 The electronic state is 1-A.
 Alpha  occ. eigenvalues --  -18.90044 -18.90044 -18.89957 -18.89957 -14.10566
 Alpha  occ. eigenvalues --  -14.10566 -10.05211 -10.05211 -10.05181 -10.05181
 Alpha  occ. eigenvalues --  -10.04827 -10.04827 -10.04735 -10.04735 -10.04417
 Alpha  occ. eigenvalues --  -10.04394 -10.03477 -10.03451 -10.01840 -10.01817
 Alpha  occ. eigenvalues --  -10.01440 -10.01416 -10.01228 -10.01227 -10.01085
 Alpha  occ. eigenvalues --  -10.01085 -10.00509 -10.00482 -10.00482 -10.00458
 Alpha  occ. eigenvalues --  -10.00339 -10.00339 -10.00308 -10.00308 -10.00032
 Alpha  occ. eigenvalues --  -10.00031  -9.99962  -9.99962  -9.99634  -9.99634
 Alpha  occ. eigenvalues --   -9.99603  -9.99603  -9.99237  -9.99236  -1.07901
 Alpha  occ. eigenvalues --   -1.07901  -1.06020  -1.06020  -0.99014  -0.92383
 Alpha  occ. eigenvalues --   -0.90848  -0.88837  -0.86944  -0.86772  -0.86034
 Alpha  occ. eigenvalues --   -0.83846  -0.81694  -0.80186  -0.79717  -0.78906
 Alpha  occ. eigenvalues --   -0.77586  -0.77575  -0.76290  -0.76116  -0.75179
 Alpha  occ. eigenvalues --   -0.74337  -0.73261  -0.73214  -0.72178  -0.71681
 Alpha  occ. eigenvalues --   -0.69352  -0.67684  -0.66164  -0.65675  -0.64395
 Alpha  occ. eigenvalues --   -0.63392  -0.63164  -0.63107  -0.62517  -0.61571
 Alpha  occ. eigenvalues --   -0.60287  -0.58202  -0.57983  -0.57295  -0.57101
 Alpha  occ. eigenvalues --   -0.56283  -0.55303  -0.54515  -0.54038  -0.53392
 Alpha  occ. eigenvalues --   -0.52881  -0.52700  -0.51325  -0.51062  -0.51050
 Alpha  occ. eigenvalues --   -0.50988  -0.49928  -0.49807  -0.49795  -0.49595
 Alpha  occ. eigenvalues --   -0.49003  -0.48864  -0.48863  -0.48071  -0.47636
 Alpha  occ. eigenvalues --   -0.47183  -0.47039  -0.46668  -0.46315  -0.46263
 Alpha  occ. eigenvalues --   -0.45520  -0.45176  -0.44706  -0.44563  -0.44095
 Alpha  occ. eigenvalues --   -0.43631  -0.43062  -0.43045  -0.42913  -0.42146
 Alpha  occ. eigenvalues --   -0.41396  -0.40984  -0.40821  -0.40625  -0.40454
 Alpha  occ. eigenvalues --   -0.39816  -0.39704  -0.38901  -0.37358  -0.37175
 Alpha  occ. eigenvalues --   -0.37131  -0.37062  -0.37014  -0.36545  -0.36267
 Alpha  occ. eigenvalues --   -0.36231  -0.36131  -0.35869  -0.35395  -0.34133
 Alpha  occ. eigenvalues --   -0.33915  -0.32588  -0.30658  -0.29799  -0.28758
 Alpha  occ. eigenvalues --   -0.28438  -0.28257  -0.27439  -0.25723  -0.25237
 Alpha  occ. eigenvalues --   -0.23811
 Alpha virt. eigenvalues --   -0.03274  -0.00950   0.02348   0.02443   0.05004
 Alpha virt. eigenvalues --    0.05419   0.06105   0.06631   0.07335   0.08277
 Alpha virt. eigenvalues --    0.09436   0.11537   0.13685   0.13968   0.15337

 Mulliken charges:
               1
     1  C    0.016910
     2  C    0.083719
     3  C    0.083719
     4  C    0.016910
     5  C    0.053922
     6  C    0.053922
     7  C   -0.137083
     8  C   -0.154679
     9  H    0.123896
    10  H    0.098871
    11  C   -0.154679
    12  C   -0.137083
    13  H    0.098871
    14  H    0.123896
    15  C    0.238400
    16  C    0.238400
    17  C    0.267842
    18  N   -0.567839
    19  N   -0.567840
    20  C    0.267842
    21  C   -0.161685
    22  C   -0.161685
    23  C    0.028345
    24  C    0.028345
    25  H    0.114916
    26  H    0.114917
    27  C    0.304116
    28  C    0.295924
    29  C   -0.174646
    30  C    0.006355
    31  C   -0.110472
    32  C   -0.161029
    33  H    0.103707
    34  H    0.103915
    35  H    0.100758
    36  C   -0.110472
    37  C    0.006355
    38  C   -0.174646
    39  C    0.295924
    40  C    0.304116
    41  C   -0.161029
    42  H    0.103915
    43  H    0.103706
    44  H    0.100758
    45  O   -0.466497
    46  O   -0.469336
    47  C   -0.142711
    48  C   -0.142146
    49  H    0.126825
    50  H    0.140069
    51  H    0.125822
    52  H    0.139867
    53  H    0.127030
    54  H    0.126176
    55  O   -0.469336
    56  O   -0.466497
    57  C   -0.142711
    58  C   -0.142146
    59  H    0.125821
    60  H    0.126825
    61  H    0.140069
    62  H    0.139867
    63  H    0.127030
    64  H    0.126176
    65  C   -0.102522
    66  H    0.103368
    67  C   -0.102522
    68  H    0.103368
    69  C   -0.140208
    70  H    0.100104
    71  C   -0.140208
    72  H    0.100104
 Sum of Mulliken charges =  -0.00000

 Dipole moment (field-independent basis, Debye):
    X=             -1.3734    Y=              0.0002    Z=              0.0003  Tot=              1.3734
 Quadrupole moment (field-independent basis, Debye-Ang):
   XX=           -204.4330   YY=           -232.1557   ZZ=           -241.9613
   XY=             -0.0003   XZ=             -0.0014   YZ=             -4.9924

 Normal termination of Gaussian 16 at Wed Oct 24 11:07:06 2018.
