 Gaussian 16, Revision A.03,
 Gaussian 16:  ES64L-G16RevA.03 25-Dec-2016

 ----------------------------------------------------------------------
 #p td=(singlets,nstates=20) Geom=Checkpoint Guess=Read LC-wPBE/6-31g(d
 ,p) IOP(3/107=0166600000) IOP(3/108=0166600000)
 ----------------------------------------------------------------------

 -------------------------------------------------------------
 Tuning input file generated by awtune with parameters: w01666
 -------------------------------------------------------------
 Structure from the checkpoint file:  "qpp1_h_tuned_td_singlet.chk"
 Charge =  0 Multiplicity = 1

                         Standard orientation:
 ---------------------------------------------------------------------
 Center     Atomic      Atomic             Coordinates (Angstroms)
 Number     Number       Type             X           Y           Z
 ---------------------------------------------------------------------
      1          6           0       -0.728487    0.000000    0.000001
      2          6           0       -1.449678   -1.222998   -0.001140
      3          6           0       -0.719781   -2.498730   -0.002017
      4          6           0        0.719781   -2.498730    0.002019
      5          6           0        1.449678   -1.222998    0.001144
      6          6           0        0.728487   -0.000000    0.000001
      7          6           0        0.715094   -4.793265    0.006346
      8          6           0       -0.715094   -4.793265   -0.006348
      9          6           0       -1.400518   -6.037967    0.000436
     10          1           0       -2.492105   -6.012425    0.040247
     11          6           0        1.400518   -6.037967   -0.000440
     12          1           0        2.492105   -6.012425   -0.040251
     13          7           0        1.419724   -3.632534    0.006698
     14          7           0       -1.419724   -3.632534   -0.006698
     15          6           0       -1.449678    1.222998    0.001144
     16          6           0        1.449678    1.222998   -0.001140
     17          6           0       -2.852745    1.209394    0.000980
     18          6           0       -2.852745   -1.209394   -0.000975
     19          1           0       -3.373181    2.169071    0.001299
     20          1           0       -3.373181   -2.169071   -0.001293
     21          6           0        2.852745   -1.209394    0.000980
     22          6           0        2.852745    1.209394   -0.000975
     23          1           0        3.373181   -2.169071    0.001299
     24          1           0        3.373181    2.169071   -0.001293
     25          6           0        0.719781    2.498730   -0.002017
     26          6           0       -0.719781    2.498730    0.002019
     27          6           0        0.715094    4.793265   -0.006348
     28          7           0        1.419724    3.632534   -0.006698
     29          7           0       -1.419724    3.632534    0.006698
     30          6           0       -0.715094    4.793265    0.006346
     31          6           0        0.724269   -7.247960   -0.009064
     32          6           0       -0.724269   -7.247960    0.009058
     33          6           0       -1.400518    6.037967   -0.000440
     34          6           0        1.400518    6.037967    0.000436
     35          6           0        0.724269    7.247960    0.009058
     36          6           0       -0.724269    7.247960   -0.009064
     37          1           0       -2.492105    6.012425   -0.040251
     38          1           0        2.492105    6.012425    0.040247
     39          6           0       -3.164877   10.804389   -0.237307
     40          6           0       -3.431518    9.807309    0.740799
     41          6           0       -2.618721    8.675152    0.808521
     42          6           0       -1.528427    8.502828   -0.073583
     43          6           0       -1.275608    9.491715   -1.028517
     44          6           0       -2.089304   10.630814   -1.111545
     45          1           0       -2.808918    7.909662    1.562539
     46          1           0       -0.441549    9.377907   -1.723388
     47          1           0       -1.874777   11.383715   -1.871080
     48          6           0        1.275608    9.491716    1.028509
     49          6           0        1.528427    8.502828    0.073576
     50          6           0        2.618721    8.675151   -0.808528
     51          6           0        3.431519    9.807307   -0.740807
     52          6           0        3.164879   10.804388    0.237298
     53          6           0        2.089304   10.630815    1.111535
     54          1           0        0.441549    9.377911    1.723379
     55          1           0        2.808917    7.909660   -1.562546
     56          1           0        1.874775   11.383720    1.871066
     57          6           0       -1.528427   -8.502828    0.073576
     58          6           0       -1.275608   -9.491716    1.028509
     59          6           0       -2.618721   -8.675151   -0.808528
     60          6           0       -2.089304  -10.630815    1.111535
     61          1           0       -0.441549   -9.377911    1.723379
     62          6           0       -3.431519   -9.807307   -0.740807
     63          1           0       -2.808917   -7.909660   -1.562546
     64          6           0       -3.164879  -10.804388    0.237298
     65          1           0       -1.874775  -11.383720    1.871066
     66          6           0        1.528427   -8.502828   -0.073583
     67          6           0        1.275608   -9.491715   -1.028517
     68          6           0        2.618721   -8.675152    0.808521
     69          6           0        2.089304  -10.630814   -1.111545
     70          1           0        0.441549   -9.377907   -1.723388
     71          6           0        3.431518   -9.807309    0.740799
     72          1           0        2.808918   -7.909662    1.562539
     73          6           0        3.164877  -10.804389   -0.237307
     74          1           0        1.874777  -11.383715   -1.871080
     75          8           0        4.012616   11.874915    0.227704
     76          8           0        4.496442   10.061810   -1.558184
     77          6           0        3.775897   12.889941    1.193754
     78          6           0        4.801558    9.082012   -2.541200
     79          1           0        3.864761   12.502576    2.224765
     80          1           0        4.549025   13.650810    1.026010
     81          1           0        2.779126   13.350164    1.068392
     82          1           0        5.679459    9.460517   -3.080428
     83          1           0        5.047710    8.106393   -2.084516
     84          1           0        3.968892    8.943407   -3.254417
     85          8           0       -4.496442   10.061813    1.558175
     86          8           0       -4.012615   11.874915   -0.227716
     87          8           0        4.496442  -10.061813    1.558175
     88          8           0        4.012615  -11.874915   -0.227716
     89          8           0       -4.496442  -10.061810   -1.558184
     90          8           0       -4.012616  -11.874915    0.227704
     91          6           0       -3.775856   12.889972   -1.193724
     92          6           0       -4.801536    9.082033    2.541216
     93          6           0       -4.801558   -9.082012   -2.541200
     94          6           0       -3.775897  -12.889941    1.193754
     95          6           0        3.775856  -12.889972   -1.193724
     96          6           0        4.801536   -9.082033    2.541216
     97          1           0       -2.779068   13.350152   -1.068339
     98          1           0       -3.864729   12.502652   -2.224752
     99          1           0       -4.548957   13.650862   -1.025954
    100          1           0       -5.679422    9.460551    3.080459
    101          1           0       -5.047702    8.106407    2.084556
    102          1           0       -3.968852    8.943439    3.254414
    103          1           0       -3.968892   -8.943407   -3.254417
    104          1           0       -5.679459   -9.460517   -3.080428
    105          1           0       -5.047710   -8.106393   -2.084516
    106          1           0       -4.549025  -13.650810    1.026010
    107          1           0       -3.864761  -12.502576    2.224765
    108          1           0       -2.779126  -13.350164    1.068392
    109          1           0        2.779068  -13.350152   -1.068339
    110          1           0        3.864729  -12.502652   -2.224752
    111          1           0        4.548957  -13.650862   -1.025954
    112          1           0        3.968852   -8.943439    3.254414
    113          1           0        5.679422   -9.460551    3.080459
    114          1           0        5.047702   -8.106407    2.084556
    115          6           0       -3.548899    0.000000    0.000003
    116          1           0       -4.641715    0.000000    0.000004
    117          6           0        3.548899   -0.000000    0.000003
    118          1           0        4.641715   -0.000000    0.000004
 ---------------------------------------------------------------------

 SCF Done:  E(RLC-wPBE) =  -3132.03920438     A.U. after   13 cycles

 Excitation energies and oscillator strengths:

 Excited State   1:      Singlet-B      3.0161 eV  411.07 nm  f=1.3330  <S**2>=0.000
     235 -> 250       -0.11015
     245 -> 251        0.27275
     248 -> 250       -0.35552
     249 -> 251        0.49930
 This state for optimization and/or second-order correction.
 Total Energy, E(TD-HF/TD-DFT) =  -3131.92836452
 Copying the excited state density for this state as the 1-particle RhoCI density.

 Excited State   2:      Singlet-B      3.0787 eV  402.72 nm  f=0.0001  <S**2>=0.000
     238 -> 251       -0.16726
     240 -> 251        0.45636
     241 -> 250        0.48133
     243 -> 250        0.12241

 Excited State   3:      Singlet-A      3.0788 eV  402.71 nm  f=0.0026  <S**2>=0.000
     238 -> 250       -0.17141
     240 -> 250        0.46738
     241 -> 251        0.47036
     243 -> 251        0.11972

 Excited State   4:      Singlet-A      3.1211 eV  397.25 nm  f=0.0000  <S**2>=0.000
     245 -> 250        0.19772
     248 -> 251       -0.38792
     249 -> 250        0.50951

 Excited State   5:      Singlet-B      3.3369 eV  371.56 nm  f=0.0011  <S**2>=0.000
     243 -> 250        0.20338
     244 -> 251       -0.30425
     246 -> 250        0.36487
     247 -> 251        0.42476

 Excited State   6:      Singlet-A      3.3469 eV  370.45 nm  f=0.0006  <S**2>=0.000
     243 -> 251        0.18294
     244 -> 250       -0.31505
     246 -> 251        0.35599
     247 -> 250        0.44184

 Excited State   7:      Singlet-B      3.5238 eV  351.84 nm  f=0.0101  <S**2>=0.000
     244 -> 252        0.16876
     245 -> 251        0.52263
     248 -> 250        0.36761

 Excited State   8:      Singlet-A      3.6102 eV  343.42 nm  f=0.0000  <S**2>=0.000
     242 -> 251       -0.10492
     245 -> 250        0.57882
     248 -> 251        0.33347

 Excited State   9:      Singlet-A      3.7105 eV  334.14 nm  f=0.0010  <S**2>=0.000
     236 -> 250        0.20990
     238 -> 250        0.19015
     244 -> 250        0.52193
     246 -> 251        0.32649

 Excited State  10:      Singlet-B      3.7570 eV  330.01 nm  f=0.0161  <S**2>=0.000
     236 -> 251        0.17642
     238 -> 251        0.16233
     244 -> 251        0.49899
     245 -> 252       -0.14582
     246 -> 250        0.33192
     247 -> 251        0.11975
     249 -> 252       -0.11995

 Excited State  11:      Singlet-A      4.0113 eV  309.08 nm  f=0.0036  <S**2>=0.000
     236 -> 250        0.20784
     237 -> 251       -0.13590
     238 -> 250        0.18581
     241 -> 251       -0.14270
     243 -> 251        0.47138
     244 -> 250       -0.13815
     247 -> 250       -0.28194

 Excited State  12:      Singlet-B      4.0128 eV  308.97 nm  f=0.2700  <S**2>=0.000
     236 -> 251       -0.11766
     238 -> 251       -0.12129
     243 -> 250       -0.28937
     244 -> 251        0.13709
     245 -> 252        0.10952
     247 -> 251        0.11065
     248 -> 253       -0.29644
     249 -> 252        0.41997
     249 -> 255       -0.16752

 Excited State  13:      Singlet-A      4.0526 eV  305.93 nm  f=0.0000  <S**2>=0.000
     237 -> 252       -0.10587
     238 -> 253       -0.11007
     240 -> 253        0.30415
     241 -> 252        0.57640
     243 -> 252        0.14696

 Excited State  14:      Singlet-A      4.0572 eV  305.59 nm  f=0.0079  <S**2>=0.000
     248 -> 252        0.46917
     248 -> 255       -0.22327
     249 -> 253       -0.42763

 Excited State  15:      Singlet-B      4.0616 eV  305.26 nm  f=1.5140  <S**2>=0.000
     238 -> 252       -0.20451
     240 -> 252        0.33829
     241 -> 253        0.18802
     243 -> 253        0.12265
     244 -> 252       -0.33623
     245 -> 251        0.13134
     246 -> 253        0.14793
     247 -> 252        0.29569

 Excited State  16:      Singlet-B      4.0666 eV  304.88 nm  f=1.1810  <S**2>=0.000
     240 -> 252        0.44919
     241 -> 253        0.25567
     244 -> 252        0.28114
     245 -> 251       -0.11791
     246 -> 253       -0.12873
     247 -> 252       -0.25641

 Excited State  17:      Singlet-B      4.0994 eV  302.44 nm  f=0.1320  <S**2>=0.000
     236 -> 251        0.24245
     238 -> 251        0.22342
     241 -> 250       -0.10602
     243 -> 250        0.36325
     247 -> 251       -0.26280
     248 -> 253       -0.19315
     249 -> 252        0.29631

 Excited State  18:      Singlet-B      4.1198 eV  300.95 nm  f=0.0350  <S**2>=0.000
     233 -> 251       -0.11450
     235 -> 250        0.23743
     236 -> 252        0.13783
     239 -> 251        0.22353
     242 -> 250        0.38563
     245 -> 254        0.17016
     246 -> 253        0.13247
     248 -> 250        0.13660
     249 -> 251        0.25928

 Excited State  19:      Singlet-A      4.1437 eV  299.21 nm  f=0.0000  <S**2>=0.000
     233 -> 250       -0.11187
     235 -> 251        0.18518
     239 -> 250        0.21255
     242 -> 251        0.31881
     243 -> 252        0.15129
     244 -> 253       -0.10333
     246 -> 252        0.23868
     247 -> 253        0.21376
     248 -> 251        0.18130
     249 -> 250        0.28573

 Excited State  20:      Singlet-B      4.4062 eV  281.39 nm  f=0.3797  <S**2>=0.000
     235 -> 250        0.13701
     236 -> 252       -0.10528
     239 -> 251       -0.18282
     244 -> 252       -0.11571
     245 -> 251       -0.13489
     246 -> 253       -0.20643
     247 -> 252       -0.14889
     247 -> 255        0.13748
     248 -> 250        0.36650
     249 -> 251        0.36160

 The electronic state is 1-A.
 Alpha  occ. eigenvalues --  -18.89745 -18.89745 -18.89745 -18.89745 -18.89652
 Alpha  occ. eigenvalues --  -18.89652 -18.89652 -18.89652 -14.10298 -14.10298
 Alpha  occ. eigenvalues --  -14.10298 -14.10298 -10.04890 -10.04890 -10.04890
 Alpha  occ. eigenvalues --  -10.04890 -10.04859 -10.04859 -10.04859 -10.04859
 Alpha  occ. eigenvalues --  -10.04508 -10.04508 -10.04508 -10.04508 -10.04407
 Alpha  occ. eigenvalues --  -10.04407 -10.04407 -10.04407 -10.04124 -10.04124
 Alpha  occ. eigenvalues --  -10.04100 -10.04100 -10.03203 -10.03203 -10.03177
 Alpha  occ. eigenvalues --  -10.03177 -10.01581 -10.01560 -10.01551 -10.01551
 Alpha  occ. eigenvalues --  -10.01528 -10.01528 -10.00899 -10.00898 -10.00898
 Alpha  occ. eigenvalues --  -10.00898 -10.00027 -10.00027 -10.00026 -10.00026
 Alpha  occ. eigenvalues --   -9.99909  -9.99909  -9.99785  -9.99785  -9.99780
 Alpha  occ. eigenvalues --   -9.99780  -9.99736  -9.99736  -9.99736  -9.99736
 Alpha  occ. eigenvalues --   -9.99317  -9.99317  -9.99317  -9.99317  -9.99285
 Alpha  occ. eigenvalues --   -9.99285  -9.99285  -9.99285  -9.98923  -9.98923
 Alpha  occ. eigenvalues --   -9.98922  -9.98922  -1.07559  -1.07559  -1.07559
 Alpha  occ. eigenvalues --   -1.07559  -1.05681  -1.05681  -1.05681  -1.05681
 Alpha  occ. eigenvalues --   -0.98763  -0.98670  -0.92163  -0.92031  -0.90401
 Alpha  occ. eigenvalues --   -0.88633  -0.88297  -0.86553  -0.86430  -0.86396
 Alpha  occ. eigenvalues --   -0.85827  -0.85217  -0.82659  -0.81266  -0.79955
 Alpha  occ. eigenvalues --   -0.79779  -0.79726  -0.78656  -0.78542  -0.77396
 Alpha  occ. eigenvalues --   -0.77296  -0.77135  -0.76728  -0.76099  -0.75820
 Alpha  occ. eigenvalues --   -0.75177  -0.74796  -0.74793  -0.72948  -0.72935
 Alpha  occ. eigenvalues --   -0.72917  -0.72876  -0.71984  -0.71809  -0.71411
 Alpha  occ. eigenvalues --   -0.71294  -0.69596  -0.68217  -0.67631  -0.67053
 Alpha  occ. eigenvalues --   -0.66046  -0.64217  -0.63884  -0.63403  -0.62947
 Alpha  occ. eigenvalues --   -0.62823  -0.62721  -0.62560  -0.62221  -0.62185
 Alpha  occ. eigenvalues --   -0.61630  -0.60759  -0.60396  -0.59614  -0.57927
 Alpha  occ. eigenvalues --   -0.57895  -0.57709  -0.57493  -0.56980  -0.56639
 Alpha  occ. eigenvalues --   -0.55972  -0.55963  -0.55032  -0.54213  -0.54212
 Alpha  occ. eigenvalues --   -0.53554  -0.53484  -0.53095  -0.53091  -0.52814
 Alpha  occ. eigenvalues --   -0.52027  -0.51466  -0.51251  -0.50917  -0.50763
 Alpha  occ. eigenvalues --   -0.50751  -0.50744  -0.50720  -0.50198  -0.49533
 Alpha  occ. eigenvalues --   -0.49514  -0.49514  -0.49511  -0.49511  -0.49031
 Alpha  occ. eigenvalues --   -0.48702  -0.48695  -0.48652  -0.48589  -0.48421
 Alpha  occ. eigenvalues --   -0.48173  -0.48159  -0.47941  -0.47448  -0.47382
 Alpha  occ. eigenvalues --   -0.47107  -0.46913  -0.46688  -0.46631  -0.46188
 Alpha  occ. eigenvalues --   -0.46059  -0.45984  -0.45734  -0.45115  -0.44857
 Alpha  occ. eigenvalues --   -0.44326  -0.44304  -0.44274  -0.43871  -0.43507
 Alpha  occ. eigenvalues --   -0.43500  -0.43386  -0.42767  -0.42752  -0.42659
 Alpha  occ. eigenvalues --   -0.42597  -0.42309  -0.41317  -0.40900  -0.40841
 Alpha  occ. eigenvalues --   -0.40558  -0.40494  -0.40450  -0.40241  -0.40140
 Alpha  occ. eigenvalues --   -0.40007  -0.39499  -0.39420  -0.39420  -0.38620
 Alpha  occ. eigenvalues --   -0.37986  -0.37722  -0.37314  -0.36916  -0.36907
 Alpha  occ. eigenvalues --   -0.36830  -0.36771  -0.36673  -0.36545  -0.36215
 Alpha  occ. eigenvalues --   -0.36071  -0.35979  -0.35979  -0.35906  -0.35885
 Alpha  occ. eigenvalues --   -0.35834  -0.35631  -0.35626  -0.35214  -0.34147
 Alpha  occ. eigenvalues --   -0.33892  -0.33498  -0.33046  -0.32210  -0.30369
 Alpha  occ. eigenvalues --   -0.30179  -0.29030  -0.28629  -0.28558  -0.28105
 Alpha  occ. eigenvalues --   -0.28096  -0.28080  -0.27746  -0.27085  -0.26284
 Alpha  occ. eigenvalues --   -0.25081  -0.25043  -0.23779  -0.23582
 Alpha virt. eigenvalues --   -0.03528  -0.03458  -0.00941   0.01376   0.02573
 Alpha virt. eigenvalues --    0.03927   0.04570   0.05277   0.05306   0.05472
 Alpha virt. eigenvalues --    0.06200   0.06441   0.06448   0.07180   0.07411

 Mulliken charges:
               1
     1  C    0.037482
     2  C    0.022188
     3  C    0.241443
     4  C    0.241443
     5  C    0.022187
     6  C    0.037482
     7  C    0.269168
     8  C    0.269168
     9  C   -0.161737
    10  H    0.114643
    11  C   -0.161737
    12  H    0.114643
    13  N   -0.570496
    14  N   -0.570496
    15  C    0.022187
    16  C    0.022188
    17  C   -0.119741
    18  C   -0.119741
    19  H    0.124412
    20  H    0.124412
    21  C   -0.119741
    22  C   -0.119741
    23  H    0.124412
    24  H    0.124412
    25  C    0.241443
    26  C    0.241443
    27  C    0.269168
    28  N   -0.570496
    29  N   -0.570496
    30  C    0.269168
    31  C    0.028999
    32  C    0.028999
    33  C   -0.161737
    34  C   -0.161737
    35  C    0.028999
    36  C    0.028999
    37  H    0.114643
    38  H    0.114643
    39  C    0.304191
    40  C    0.295890
    41  C   -0.174343
    42  C    0.006671
    43  C   -0.110362
    44  C   -0.160513
    45  H    0.103246
    46  H    0.103625
    47  H    0.100330
    48  C   -0.110362
    49  C    0.006671
    50  C   -0.174343
    51  C    0.295890
    52  C    0.304191
    53  C   -0.160514
    54  H    0.103625
    55  H    0.103246
    56  H    0.100330
    57  C    0.006671
    58  C   -0.110362
    59  C   -0.174343
    60  C   -0.160514
    61  H    0.103625
    62  C    0.295890
    63  H    0.103246
    64  C    0.304191
    65  H    0.100330
    66  C    0.006671
    67  C   -0.110362
    68  C   -0.174343
    69  C   -0.160513
    70  H    0.103625
    71  C    0.295890
    72  H    0.103246
    73  C    0.304191
    74  H    0.100330
    75  O   -0.466019
    76  O   -0.468938
    77  C   -0.142813
    78  C   -0.142273
    79  H    0.126935
    80  H    0.140057
    81  H    0.125858
    82  H    0.139892
    83  H    0.127137
    84  H    0.126260
    85  O   -0.468938
    86  O   -0.466019
    87  O   -0.468938
    88  O   -0.466019
    89  O   -0.468938
    90  O   -0.466019
    91  C   -0.142813
    92  C   -0.142273
    93  C   -0.142273
    94  C   -0.142813
    95  C   -0.142813
    96  C   -0.142273
    97  H    0.125859
    98  H    0.126935
    99  H    0.140057
   100  H    0.139892
   101  H    0.127137
   102  H    0.126260
   103  H    0.126260
   104  H    0.139892
   105  H    0.127137
   106  H    0.140057
   107  H    0.126935
   108  H    0.125858
   109  H    0.125859
   110  H    0.126935
   111  H    0.140057
   112  H    0.126260
   113  H    0.139892
   114  H    0.127137
   115  C   -0.109330
   116  H    0.104431
   117  C   -0.109330
   118  H    0.104431
 Sum of Mulliken charges =  -0.00000

 Dipole moment (field-independent basis, Debye):
    X=             -0.0000    Y=              0.0000    Z=              0.0001  Tot=              0.0001
 Quadrupole moment (field-independent basis, Debye-Ang):
   XX=           -388.3716   YY=           -294.8155   ZZ=           -385.1450
   XY=              0.0011   XZ=             -0.0000   YZ=              0.0000

 Normal termination of Gaussian 16 at Wed Oct 24 11:17:14 2018.
