 Gaussian 16, Revision A.03,
 Gaussian 16:  EM64L-G16RevA.03 25-Dec-2016

 ----------------------------------------------------------------------
 #P uLC-wHPBE/def2tzvp iop(3/107=0180000000, 3/108=0180000000) td(NStat
 es=20)
 ----------------------------------------------------------------------

 -------
 H22 C40
 -------
 Symbolic Z-matrix:
 Charge =  0 Multiplicity = 1

                         Standard orientation:
 ---------------------------------------------------------------------
 Center     Atomic      Atomic             Coordinates (Angstroms)
 Number     Number       Type             X           Y           Z
 ---------------------------------------------------------------------
      1          6           0        0.000000    0.000000    3.536321
      2          6           0        0.000000    1.198833    2.842572
      3          6           0        0.000000    1.227405    1.443698
      4          6           0        0.000000    0.000000    0.729898
      5          6           0       -0.000000   -1.227405    1.443698
      6          6           0       -0.000000   -1.198833    2.842572
      7          6           0        0.000000    2.511121    0.719817
      8          6           0        0.000000    0.000000   -0.729898
      9          6           0        0.000000    1.227405   -1.443698
     10          6           0        0.000000    2.511121   -0.719817
     11          6           0        0.000000    1.198833   -2.842572
     12          1           0        0.000000    2.125364   -3.411251
     13          6           0        0.000000    0.000000   -3.536321
     14          6           0       -0.000000   -1.198833   -2.842572
     15          6           0       -0.000000   -1.227405   -1.443698
     16          6           0       -0.000000   -2.511121   -0.719817
     17          6           0       -0.000000   -2.511121    0.719817
     18          1           0        0.000000    0.000000    4.626490
     19          1           0       -0.000000    2.125364    3.411251
     20          1           0       -0.000000   -2.125364    3.411251
     21          1           0        0.000000    0.000000   -4.626490
     22          1           0       -0.000000   -2.125364   -3.411251
     23          6           0        0.000000    3.720259    1.386637
     24          6           0        0.000000    4.968122    0.716833
     25          6           0        0.000000    4.968122   -0.716833
     26          6           0        0.000000    3.720259   -1.386637
     27          1           0        0.000000    3.752440    2.474612
     28          1           0        0.000000    3.752440   -2.474612
     29          6           0        0.000000    6.191612    1.402388
     30          6           0        0.000000    7.409298    0.720717
     31          6           0        0.000000    7.409298   -0.720717
     32          6           0        0.000000    6.191612   -1.402388
     33          1           0        0.000000    6.191159    2.494732
     34          1           0        0.000000    6.191159   -2.494732
     35          6           0       -0.000000   -4.968122    0.716833
     36          6           0       -0.000000   -3.720259    1.386637
     37          6           0       -0.000000   -3.720259   -1.386637
     38          6           0       -0.000000   -4.968122   -0.716833
     39          1           0       -0.000000   -3.752440    2.474612
     40          1           0       -0.000000   -3.752440   -2.474612
     41          6           0       -0.000000   -7.409298    0.720717
     42          6           0       -0.000000   -6.191612    1.402388
     43          6           0       -0.000000   -6.191612   -1.402388
     44          6           0       -0.000000   -7.409298   -0.720717
     45          1           0       -0.000000   -6.191159    2.494732
     46          1           0       -0.000000   -6.191159   -2.494732
     47          6           0        0.000000    8.666021    1.405089
     48          6           0        0.000000    9.843169    0.712816
     49          6           0        0.000000    9.843169   -0.712816
     50          6           0        0.000000    8.666021   -1.405089
     51          1           0        0.000000    8.663579    2.496417
     52          1           0        0.000000   10.792959    1.248351
     53          1           0        0.000000   10.792959   -1.248351
     54          1           0        0.000000    8.663579   -2.496417
     55          6           0       -0.000000   -8.666021    1.405089
     56          6           0       -0.000000   -8.666021   -1.405089
     57          6           0       -0.000000   -9.843169   -0.712816
     58          6           0       -0.000000   -9.843169    0.712816
     59          1           0       -0.000000   -8.663579    2.496417
     60          1           0       -0.000000   -8.663579   -2.496417
     61          1           0       -0.000000  -10.792959   -1.248351
     62          1           0       -0.000000  -10.792959    1.248351
 ---------------------------------------------------------------------

 SCF Done:  E(ULC-wHPBE) =  -1536.63605201     A.U. after   14 cycles

 Excitation energies and oscillator strengths:

 Excited State   1:  3.000-B1U    1.5130 eV  819.48 nm  f=0.0000  <S**2>=2.000
    126A -> 137A      -0.10541
    129A -> 134A       0.11805
    130A -> 132A       0.48584
    131A -> 133A      -0.46949
    126B -> 137B       0.10541
    129B -> 134B      -0.11805
    130B -> 132B      -0.48584
    131B -> 133B       0.46949
    130A <- 132A       0.10311
    131A <- 133A      -0.10368
    130B <- 132B      -0.10311
    131B <- 133B       0.10368
 This state for optimization and/or second-order correction.
 Total Energy, E(TD-HF/TD-DFT) =  -1536.58045193
 Copying the excited state density for this state as the 1-particle RhoCI density.

 Excited State   2:  3.000-B3G    1.5679 eV  790.76 nm  f=0.0000  <S**2>=2.000
    130A -> 133A      -0.47200
    131A -> 132A       0.48235
    130B -> 133B       0.47200
    131B -> 132B      -0.48235

 Excited State   3:  3.000-B1U    2.7257 eV  454.88 nm  f=0.0000  <S**2>=2.000
    125A -> 133A      -0.11477
    126A -> 132A       0.31005
    128A -> 133A       0.30444
    129A -> 134A       0.25131
    130A -> 137A      -0.29088
    131A -> 135A       0.25839
    131A -> 138A       0.14790
    125B -> 133B       0.11477
    126B -> 132B      -0.31005
    128B -> 133B      -0.30444
    129B -> 134B      -0.25131
    130B -> 137B       0.29088
    131B -> 135B      -0.25839
    131B -> 138B      -0.14790

 Excited State   4:  3.000-AG     2.7651 eV  448.39 nm  f=0.0000  <S**2>=2.000
    126A -> 134A      -0.15388
    127A -> 133A       0.19202
    129A -> 132A      -0.50346
    129A -> 137A       0.15973
    130A -> 134A      -0.32290
    131A -> 136A       0.12355
    126B -> 134B       0.15388
    127B -> 133B      -0.19202
    129B -> 132B       0.50346
    129B -> 137B      -0.15973
    130B -> 134B       0.32290
    131B -> 136B      -0.12355

 Excited State   5:  1.000-B1U    2.9020 eV  427.24 nm  f=0.0565  <S**2>=0.000
    130A -> 132A       0.50184
    131A -> 133A      -0.48645
    130B -> 132B       0.50184
    131B -> 133B      -0.48645

 Excited State   6:  1.000-B3G    2.9079 eV  426.37 nm  f=0.0000  <S**2>=0.000
    130A -> 133A      -0.45291
    131A -> 132A       0.53290
    130B -> 133B      -0.45291
    131B -> 132B       0.53290

 Excited State   7:  3.000-B3G    2.9232 eV  424.14 nm  f=0.0000  <S**2>=2.000
    125A -> 132A      -0.20409
    126A -> 133A       0.31598
    128A -> 132A       0.30685
    130A -> 135A      -0.18040
    130A -> 138A      -0.23657
    131A -> 132A      -0.12564
    131A -> 137A       0.33324
    125B -> 132B       0.20409
    126B -> 133B      -0.31598
    128B -> 132B      -0.30685
    130B -> 135B       0.18040
    130B -> 138B       0.23657
    131B -> 132B       0.12564
    131B -> 137B      -0.33324

 Excited State   8:  3.000-B2U    3.0653 eV  404.48 nm  f=0.0000  <S**2>=2.000
    127A -> 132A       0.30840
    129A -> 133A      -0.51723
    130A -> 136A      -0.14977
    131A -> 134A       0.26491
    127B -> 132B      -0.30840
    129B -> 133B       0.51723
    130B -> 136B       0.14977
    131B -> 134B      -0.26491

 Excited State   9:  3.000-B2U    3.2130 eV  385.88 nm  f=0.0000  <S**2>=2.000
    127A -> 132A      -0.15596
    128A -> 134A      -0.12343
    129A -> 133A       0.25997
    130A -> 136A      -0.28221
    131A -> 134A       0.52514
    127B -> 132B       0.15596
    128B -> 134B       0.12343
    129B -> 133B      -0.25997
    130B -> 136B       0.28221
    131B -> 134B      -0.52514

 Excited State  10:  3.000-AG     3.2958 eV  376.19 nm  f=0.0000  <S**2>=2.000
    124A -> 132A      -0.12558
    127A -> 133A       0.24810
    129A -> 132A      -0.29880
    130A -> 134A       0.43835
    130A -> 139A       0.10557
    131A -> 136A      -0.31737
    124B -> 132B       0.12558
    127B -> 133B      -0.24810
    129B -> 132B       0.29880
    130B -> 134B      -0.43835
    130B -> 139B      -0.10557
    131B -> 136B       0.31737

 Excited State  11:  3.000-B1U    3.3188 eV  373.59 nm  f=0.0000  <S**2>=2.000
    125A -> 133A       0.18618
    126A -> 132A      -0.16731
    128A -> 133A       0.20644
    128A -> 135A      -0.30890
    130A -> 132A      -0.24136
    130A -> 137A       0.16297
    131A -> 133A      -0.28907
    131A -> 135A       0.26411
    131A -> 138A      -0.17102
    125B -> 133B      -0.18618
    126B -> 132B       0.16731
    128B -> 133B      -0.20644
    128B -> 135B       0.30890
    130B -> 132B       0.24136
    130B -> 137B      -0.16297
    131B -> 133B       0.28907
    131B -> 135B      -0.26411
    131B -> 138B       0.17102

 Excited State  12:  1.000-B2U    3.3616 eV  368.82 nm  f=0.0159  <S**2>=0.000
    127A -> 132A      -0.22624
    129A -> 133A       0.45035
    130A -> 136A      -0.20351
    131A -> 134A       0.40510
    127B -> 132B      -0.22624
    129B -> 133B       0.45035
    130B -> 136B      -0.20351
    131B -> 134B       0.40510

 Excited State  13:  3.000-B1U    3.3652 eV  368.43 nm  f=0.0000  <S**2>=2.000
    123A -> 132A      -0.16633
    125A -> 133A      -0.17406
    126A -> 137A       0.14161
    128A -> 133A       0.13490
    129A -> 134A      -0.48086
    130A -> 140A      -0.11055
    131A -> 133A      -0.20765
    131A -> 138A       0.17754
    123B -> 132B       0.16633
    125B -> 133B       0.17406
    126B -> 137B      -0.14161
    128B -> 133B      -0.13490
    129B -> 134B       0.48086
    130B -> 140B       0.11055
    131B -> 133B       0.20765
    131B -> 138B      -0.17754

 Excited State  14:  1.000-AG     3.4308 eV  361.38 nm  f=0.0000  <S**2>=0.000
    127A -> 133A      -0.26351
    129A -> 132A       0.47894
    130A -> 134A      -0.32182
    131A -> 136A       0.25002
    127B -> 133B      -0.26351
    129B -> 132B       0.47894
    130B -> 134B      -0.32182
    131B -> 136B       0.25002

 Excited State  15:  3.000-B3G    3.5872 eV  345.63 nm  f=0.0000  <S**2>=2.000
    125A -> 132A      -0.15970
    126A -> 133A       0.17611
    128A -> 132A      -0.25609
    128A -> 137A       0.16765
    130A -> 133A       0.34754
    130A -> 135A      -0.19240
    131A -> 132A       0.36605
    131A -> 140A       0.10517
    125B -> 132B       0.15970
    126B -> 133B      -0.17611
    128B -> 132B       0.25609
    128B -> 137B      -0.16765
    130B -> 133B      -0.34754
    130B -> 135B       0.19240
    131B -> 132B      -0.36605
    131B -> 140B      -0.10517

 Excited State  16:  1.000-B3G    3.6554 eV  339.18 nm  f=0.0000  <S**2>=0.000
    128A -> 132A      -0.31175
    130A -> 133A       0.42879
    130A -> 135A      -0.15742
    131A -> 132A       0.35664
    131A -> 137A      -0.17329
    128B -> 132B      -0.31175
    130B -> 133B       0.42879
    130B -> 135B      -0.15742
    131B -> 132B       0.35664
    131B -> 137B      -0.17329

 Excited State  17:  3.000-AG     3.6817 eV  336.76 nm  f=0.0000  <S**2>=2.000
    123A -> 134A      -0.10421
    124A -> 132A       0.30927
    126A -> 134A      -0.18409
    127A -> 133A      -0.32632
    129A -> 137A       0.23042
    130A -> 139A       0.24070
    131A -> 136A      -0.27718
    123B -> 134B       0.10421
    124B -> 132B      -0.30927
    126B -> 134B       0.18409
    127B -> 133B       0.32632
    129B -> 137B      -0.23042
    130B -> 139B      -0.24070
    131B -> 136B       0.27718

 Excited State  18:  3.000-B2U    3.7617 eV  329.60 nm  f=0.0000  <S**2>=2.000
    122A -> 132A      -0.11152
    124A -> 133A      -0.28133
    127A -> 132A       0.25908
    128A -> 134A       0.23801
    129A -> 133A       0.12705
    129A -> 135A      -0.38909
    130A -> 136A      -0.16882
    130A -> 142A      -0.11816
    131A -> 139A       0.18791
    122B -> 132B       0.11152
    124B -> 133B       0.28133
    127B -> 132B      -0.25908
    128B -> 134B      -0.23801
    129B -> 133B      -0.12705
    129B -> 135B       0.38909
    130B -> 136B       0.16882
    130B -> 142B       0.11816
    131B -> 139B      -0.18791

 Excited State  19:  1.000-B1U    3.8193 eV  324.63 nm  f=0.0229  <S**2>=0.000
    128A -> 133A      -0.28917
    129A -> 134A      -0.11328
    130A -> 132A       0.39301
    131A -> 133A       0.40800
    131A -> 135A      -0.25997
    128B -> 133B      -0.28917
    129B -> 134B      -0.11328
    130B -> 132B       0.39301
    131B -> 133B       0.40800
    131B -> 135B      -0.25997

 Excited State  20:  3.000-B3G    3.8456 eV  322.41 nm  f=0.0000  <S**2>=2.000
    120A -> 132A      -0.17421
    123A -> 133A      -0.23989
    125A -> 132A      -0.17057
    126A -> 135A       0.20944
    128A -> 132A      -0.11230
    128A -> 137A       0.14460
    130A -> 133A      -0.16879
    130A -> 135A       0.24611
    130A -> 138A      -0.14659
    130A -> 141A       0.21570
    131A -> 140A       0.24182
    120B -> 132B       0.17421
    123B -> 133B       0.23989
    125B -> 132B       0.17057
    126B -> 135B      -0.20944
    128B -> 132B       0.11230
    128B -> 137B      -0.14460
    130B -> 133B       0.16879
    130B -> 135B      -0.24611
    130B -> 138B       0.14659
    130B -> 141B      -0.21570
    131B -> 140B      -0.24182

 Alpha  occ. eigenvalues --  -10.00812 -10.00798 -10.00798 -10.00794 -10.00793
 Alpha  occ. eigenvalues --  -10.00398 -10.00398 -10.00379 -10.00379 -10.00328
 Alpha  occ. eigenvalues --  -10.00327 -10.00306 -10.00306  -9.99511  -9.99511
 Alpha  occ. eigenvalues --   -9.99507  -9.99507  -9.99416  -9.99416  -9.99413
 Alpha  occ. eigenvalues --   -9.99413  -9.99411  -9.99411  -9.99411  -9.99411
 Alpha  occ. eigenvalues --   -9.99352  -9.99352  -9.99329  -9.99329  -9.99292
 Alpha  occ. eigenvalues --   -9.99291  -9.99221  -9.99221  -9.99209  -9.99208
 Alpha  occ. eigenvalues --   -0.92899  -0.91672  -0.91004  -0.89258  -0.88787
 Alpha  occ. eigenvalues --   -0.87956  -0.85483  -0.83904  -0.82874  -0.82007
 Alpha  occ. eigenvalues --   -0.81997  -0.80995  -0.80404  -0.79335  -0.77601
 Alpha  occ. eigenvalues --   -0.77583  -0.76725  -0.75481  -0.73853  -0.73158
 Alpha  occ. eigenvalues --   -0.70994  -0.69330  -0.67348  -0.67079  -0.67076
 Alpha  occ. eigenvalues --   -0.65800  -0.64712  -0.64698  -0.63679  -0.63257
 Alpha  occ. eigenvalues --   -0.61887  -0.61518  -0.59488  -0.58574  -0.56794
 Alpha  occ. eigenvalues --   -0.56707  -0.56668  -0.55946  -0.53806  -0.53677
 Alpha  occ. eigenvalues --   -0.53456  -0.52204  -0.52182  -0.50421  -0.50175
 Alpha  occ. eigenvalues --   -0.50026  -0.50012  -0.49888  -0.48624  -0.48535
 Alpha  occ. eigenvalues --   -0.48513  -0.47860  -0.47705  -0.47132  -0.47107
 Alpha  occ. eigenvalues --   -0.46558  -0.46283  -0.46083  -0.45868  -0.45543
 Alpha  occ. eigenvalues --   -0.45239  -0.44801  -0.44211  -0.43706  -0.43559
 Alpha  occ. eigenvalues --   -0.43429  -0.42441  -0.42217  -0.41355  -0.41294
 Alpha  occ. eigenvalues --   -0.40019  -0.39643  -0.39509  -0.39215  -0.38368
 Alpha  occ. eigenvalues --   -0.37734  -0.37566  -0.37411  -0.37150  -0.36799
 Alpha  occ. eigenvalues --   -0.36476  -0.35366  -0.35217  -0.33178  -0.33158
 Alpha  occ. eigenvalues --   -0.30947  -0.30362  -0.29502  -0.27201  -0.25080
 Alpha  occ. eigenvalues --   -0.24945
 Alpha virt. eigenvalues --   -0.03960  -0.03673  -0.01111   0.01109   0.01693
 Alpha virt. eigenvalues --    0.02094   0.04323   0.04985   0.06453   0.06934
 Alpha virt. eigenvalues --    0.07449   0.09114   0.09404   0.10301   0.10315

  Beta  occ. eigenvalues --  -10.00879 -10.00863 -10.00834 -10.00832 -10.00814
  Beta  occ. eigenvalues --  -10.00812 -10.00798 -10.00798 -10.00794 -10.00793
  Beta  occ. eigenvalues --  -10.00398 -10.00398 -10.00379 -10.00379 -10.00328
  Beta  occ. eigenvalues --  -10.00327 -10.00306 -10.00306  -9.99511  -9.99511
  Beta  occ. eigenvalues --   -9.99507  -9.99507  -9.99416  -9.99416  -9.99413
  Beta  occ. eigenvalues --   -9.99413  -9.99411  -9.99411  -9.99411  -9.99411
  Beta  occ. eigenvalues --   -9.99352  -9.99352  -9.99329  -9.99329  -9.99292
  Beta  occ. eigenvalues --   -9.99291  -9.99221  -9.99221  -9.99209  -9.99208
  Beta  occ. eigenvalues --   -0.92899  -0.91672  -0.91004  -0.89258  -0.88787
  Beta  occ. eigenvalues --   -0.87956  -0.85483  -0.83904  -0.82874  -0.82007
  Beta  occ. eigenvalues --   -0.81997  -0.80995  -0.80404  -0.79335  -0.77601
  Beta  occ. eigenvalues --   -0.77583  -0.76725  -0.75481  -0.73853  -0.73158
  Beta  occ. eigenvalues --   -0.70994  -0.69330  -0.67348  -0.67079  -0.67076
  Beta  occ. eigenvalues --   -0.65800  -0.64712  -0.64698  -0.63679  -0.63257
  Beta  occ. eigenvalues --   -0.61887  -0.61518  -0.59488  -0.58574  -0.56794
  Beta  occ. eigenvalues --   -0.56707  -0.56668  -0.55946  -0.53806  -0.53677
  Beta  occ. eigenvalues --   -0.53456  -0.52204  -0.52182  -0.50421  -0.50175
  Beta  occ. eigenvalues --   -0.50026  -0.50012  -0.49888  -0.48624  -0.48535
  Beta  occ. eigenvalues --   -0.48513  -0.47860  -0.47705  -0.47132  -0.47107
  Beta  occ. eigenvalues --   -0.46558  -0.46283  -0.46083  -0.45868  -0.45543
  Beta  occ. eigenvalues --   -0.45239  -0.44801  -0.44211  -0.43706  -0.43559
  Beta  occ. eigenvalues --   -0.43429  -0.42441  -0.42217  -0.41355  -0.41294
  Beta  occ. eigenvalues --   -0.40019  -0.39643  -0.39509  -0.39215  -0.38368
  Beta  occ. eigenvalues --   -0.37734  -0.37566  -0.37411  -0.37150  -0.36799
  Beta  occ. eigenvalues --   -0.36476  -0.35366  -0.35217  -0.33178  -0.33158
  Beta  occ. eigenvalues --   -0.30947  -0.30362  -0.29502  -0.27201  -0.25080
  Beta  occ. eigenvalues --   -0.24945
  Beta virt. eigenvalues --   -0.03960  -0.03673  -0.01111   0.01109   0.01693
  Beta virt. eigenvalues --    0.02094   0.04323   0.04985   0.06453   0.06934
  Beta virt. eigenvalues --    0.07449   0.09114   0.09404   0.10301   0.10315

 Mulliken charges and spin densities:
               1          2
     1  C   -0.136890   0.000000
     2  C   -0.184989   0.000000
     3  C    0.112404  -0.000000
     4  C   -0.018364  -0.000000
     5  C    0.112404  -0.000000
     6  C   -0.184989   0.000000
     7  C    0.176131   0.000000
     8  C   -0.018364  -0.000000
     9  C    0.112404  -0.000000
    10  C    0.176131   0.000000
    11  C   -0.184989   0.000000
    12  H    0.081759  -0.000000
    13  C   -0.136890   0.000000
    14  C   -0.184989   0.000000
    15  C    0.112404  -0.000000
    16  C    0.176131   0.000000
    17  C    0.176131   0.000000
    18  H    0.103278  -0.000000
    19  H    0.081759  -0.000000
    20  H    0.081759  -0.000000
    21  H    0.103278  -0.000000
    22  H    0.081759  -0.000000
    23  C   -0.353678  -0.000000
    24  C    0.268161   0.000000
    25  C    0.268161   0.000000
    26  C   -0.353678  -0.000000
    27  H    0.078377  -0.000000
    28  H    0.078377  -0.000000
    29  C   -0.357100  -0.000000
    30  C    0.233364  -0.000000
    31  C    0.233364  -0.000000
    32  C   -0.357100  -0.000000
    33  H    0.089196  -0.000000
    34  H    0.089196  -0.000000
    35  C    0.268161   0.000000
    36  C   -0.353678  -0.000000
    37  C   -0.353678  -0.000000
    38  C    0.268161   0.000000
    39  H    0.078377  -0.000000
    40  H    0.078377  -0.000000
    41  C    0.233364  -0.000000
    42  C   -0.357100  -0.000000
    43  C   -0.357100  -0.000000
    44  C    0.233364  -0.000000
    45  H    0.089196  -0.000000
    46  H    0.089196  -0.000000
    47  C   -0.237446   0.000000
    48  C   -0.087135  -0.000000
    49  C   -0.087135  -0.000000
    50  C   -0.237446   0.000000
    51  H    0.099350   0.000000
    52  H    0.107594   0.000000
    53  H    0.107594   0.000000
    54  H    0.099350   0.000000
    55  C   -0.237446   0.000000
    56  C   -0.237446   0.000000
    57  C   -0.087135  -0.000000
    58  C   -0.087135  -0.000000
    59  H    0.099350   0.000000
    60  H    0.099350   0.000000
    61  H    0.107594   0.000000
    62  H    0.107594   0.000000
 Sum of Mulliken charges =  -0.00000  -0.00000

 Dipole moment (field-independent basis, Debye):
    X=             -0.0000    Y=             -0.0000    Z=             -0.0000  Tot=              0.0000
 Quadrupole moment (field-independent basis, Debye-Ang):
   XX=           -241.9795   YY=           -194.3729   ZZ=           -197.1826
   XY=              0.0000   XZ=              0.0000   YZ=              0.0000

 Normal termination of Gaussian 16 at Tue Jan 21 01:19:20 2020.
