 Gaussian 16, Revision A.03,
 Gaussian 16:  EM64L-G16RevA.03 25-Dec-2016

 ----------------------------------------------------------------------
 #P uLC-wHPBE/def2tzvp iop(3/107=0178000000, 3/108=0178000000) td(nstat
 es=20)
 ----------------------------------------------------------------------

 -------
 H26 C48
 -------
 Symbolic Z-matrix:
 Charge =  0 Multiplicity = 1

                         Standard orientation:
 ---------------------------------------------------------------------
 Center     Atomic      Atomic             Coordinates (Angstroms)
 Number     Number       Type             X           Y           Z
 ---------------------------------------------------------------------
      1          6           0        0.000000    0.000000    3.537928
      2          6           0        0.000000    1.198662    2.843870
      3          6           0        0.000000    1.227234    1.444743
      4          6           0        0.000000    0.000000    0.730717
      5          6           0       -0.000000   -1.227234    1.444743
      6          6           0       -0.000000   -1.198662    2.843870
      7          6           0        0.000000    2.512309    0.722226
      8          6           0        0.000000    0.000000   -0.730717
      9          6           0        0.000000    1.227234   -1.444743
     10          6           0        0.000000    2.512309   -0.722226
     11          6           0        0.000000    1.198662   -2.843870
     12          1           0        0.000000    2.125321   -3.412435
     13          6           0        0.000000    0.000000   -3.537928
     14          6           0       -0.000000   -1.198662   -2.843870
     15          6           0       -0.000000   -1.227234   -1.444743
     16          6           0       -0.000000   -2.512309   -0.722226
     17          6           0       -0.000000   -2.512309    0.722226
     18          1           0        0.000000    0.000000    4.628143
     19          1           0       -0.000000    2.125321    3.412435
     20          1           0       -0.000000   -2.125321    3.412435
     21          1           0        0.000000    0.000000   -4.628143
     22          1           0       -0.000000   -2.125321   -3.412435
     23          6           0        0.000000    3.718191    1.388450
     24          6           0        0.000000    4.971682    0.719770
     25          6           0        0.000000    4.971682   -0.719770
     26          6           0        0.000000    3.718191   -1.388450
     27          1           0        0.000000    3.750308    2.476462
     28          1           0        0.000000    3.750308   -2.476462
     29          6           0        0.000000    6.185808    1.405016
     30          6           0        0.000000    7.415985    0.723728
     31          6           0        0.000000    7.415985   -0.723728
     32          6           0        0.000000    6.185808   -1.405016
     33          1           0        0.000000    6.184746    2.497288
     34          1           0        0.000000    6.184746   -2.497288
     35          6           0       -0.000000   -4.971682    0.719770
     36          6           0       -0.000000   -3.718191    1.388450
     37          6           0       -0.000000   -3.718191   -1.388450
     38          6           0       -0.000000   -4.971682   -0.719770
     39          1           0       -0.000000   -3.750308    2.476462
     40          1           0       -0.000000   -3.750308   -2.476462
     41          6           0       -0.000000   -7.415985    0.723728
     42          6           0       -0.000000   -6.185808    1.405016
     43          6           0       -0.000000   -6.185808   -1.405016
     44          6           0       -0.000000   -7.415985   -0.723728
     45          1           0       -0.000000   -6.184746    2.497288
     46          1           0       -0.000000   -6.184746   -2.497288
     47          6           0        0.000000    8.652150    1.403863
     48          6           0        0.000000    8.652150   -1.403863
     49          1           0        0.000000    8.652960    2.496158
     50          1           0        0.000000    8.652960   -2.496158
     51          6           0       -0.000000   -8.652150    1.403863
     52          6           0       -0.000000   -8.652150   -1.403863
     53          6           0        0.000000   -9.862957   -0.723193
     54          6           0       -0.000000   -9.862957    0.723193
     55          1           0       -0.000000   -8.652960    2.496158
     56          1           0       -0.000000   -8.652960   -2.496158
     57          6           0        0.000000    9.862957    0.723193
     58          6           0        0.000000   11.123753    1.407086
     59          6           0        0.000000   12.298362    0.714659
     60          6           0        0.000000   12.298362   -0.714659
     61          6           0        0.000000   11.123753   -1.407086
     62          6           0        0.000000    9.862957   -0.723193
     63          1           0        0.000000   11.121586    2.498454
     64          1           0        0.000000   13.248881    1.249019
     65          1           0        0.000000   13.248881   -1.249019
     66          1           0        0.000000   11.121586   -2.498454
     67          6           0       -0.000000  -11.123753    1.407086
     68          6           0       -0.000000  -11.123753   -1.407086
     69          6           0       -0.000000  -12.298362   -0.714659
     70          6           0       -0.000000  -12.298362    0.714659
     71          1           0       -0.000000  -11.121586    2.498454
     72          1           0       -0.000000  -11.121586   -2.498454
     73          1           0       -0.000000  -13.248881   -1.249019
     74          1           0       -0.000000  -13.248881    1.249019
 ---------------------------------------------------------------------

 SCF Done:  E(ULC-wHPBE) =  -1843.70455390     A.U. after   14 cycles

 Excitation energies and oscillator strengths:

 Excited State   1:  3.000-B1U    0.9512 eV 1303.46 nm  f=0.0000  <S**2>=2.000
    153A -> 162A      -0.11573
    156A -> 158A      -0.49673
    157A -> 159A      -0.49504
    153B -> 162B       0.11573
    156B -> 158B       0.49673
    157B -> 159B       0.49504
    156A <- 158A      -0.15328
    157A <- 159A      -0.15510
    156B <- 158B       0.15328
    157B <- 159B       0.15510
 This state for optimization and/or second-order correction.
 Total Energy, E(TD-HF/TD-DFT) =  -1843.66959824
 Copying the excited state density for this state as the 1-particle RhoCI density.

 Excited State   2:  3.000-B3G    0.9825 eV 1261.90 nm  f=0.0000  <S**2>=2.000
    156A -> 159A       0.49349
    157A -> 158A       0.49342
    156B -> 159B      -0.49349
    157B -> 158B      -0.49342
    156A <- 159A       0.14686
    157A <- 158A       0.14442
    156B <- 159B      -0.14686
    157B <- 158B      -0.14442

 Excited State   3:  3.000-B1U    2.1720 eV  570.83 nm  f=0.0000  <S**2>=2.000
    151A -> 159A      -0.13564
    153A -> 158A       0.34824
    154A -> 159A       0.31537
    155A -> 160A       0.12790
    156A -> 162A       0.32065
    157A -> 161A       0.26857
    157A -> 164A      -0.15655
    151B -> 159B       0.13564
    153B -> 158B      -0.34824
    154B -> 159B      -0.31537
    155B -> 160B      -0.12790
    156B -> 162B      -0.32065
    157B -> 161B      -0.26857
    157B -> 164B       0.15655

 Excited State   4:  3.000-B3G    2.2531 eV  550.29 nm  f=0.0000  <S**2>=2.000
    151A -> 158A      -0.17198
    153A -> 159A       0.34015
    154A -> 158A       0.31668
    156A -> 161A       0.24446
    156A -> 164A      -0.19492
    157A -> 162A       0.32596
    151B -> 158B       0.17198
    153B -> 159B      -0.34015
    154B -> 158B      -0.31668
    156B -> 161B      -0.24446
    156B -> 164B       0.19492
    157B -> 162B      -0.32596

 Excited State   5:  1.000-B1U    2.3457 eV  528.56 nm  f=0.0682  <S**2>=0.000
    156A -> 158A       0.50086
    157A -> 159A       0.49433
    156B -> 158B       0.50086
    157B -> 159B       0.49433

 Excited State   6:  1.000-B3G    2.3468 eV  528.31 nm  f=0.0000  <S**2>=0.000
    156A -> 159A       0.48276
    157A -> 158A       0.51219
    156B -> 159B       0.48276
    157B -> 158B       0.51219

 Excited State   7:  3.000-AG     2.6540 eV  467.15 nm  f=0.0000  <S**2>=2.000
    152A -> 159A       0.20840
    153A -> 160A      -0.16568
    155A -> 158A      -0.48641
    155A -> 162A       0.19572
    156A -> 160A       0.29674
    157A -> 163A      -0.12017
    152B -> 159B      -0.20840
    153B -> 160B       0.16568
    155B -> 158B       0.48641
    155B -> 162B      -0.19572
    156B -> 160B      -0.29674
    157B -> 163B       0.12017

 Excited State   8:  3.000-B2U    2.8979 eV  427.84 nm  f=0.0000  <S**2>=2.000
    152A -> 158A       0.34080
    155A -> 159A      -0.51744
    155A -> 161A       0.12049
    156A -> 163A      -0.11646
    157A -> 160A       0.19800
    152B -> 158B      -0.34080
    155B -> 159B       0.51744
    155B -> 161B      -0.12049
    156B -> 163B       0.11646
    157B -> 160B      -0.19800

 Excited State   9:  3.000-B1U    2.9829 eV  415.65 nm  f=0.0000  <S**2>=2.000
    149A -> 158A      -0.23031
    151A -> 159A       0.25504
    153A -> 162A      -0.19437
    154A -> 161A      -0.29301
    155A -> 160A       0.25267
    156A -> 166A       0.21043
    157A -> 164A       0.21171
    157A -> 167A       0.12112
    149B -> 158B       0.23031
    151B -> 159B      -0.25504
    153B -> 162B       0.19437
    154B -> 161B       0.29301
    155B -> 160B      -0.25267
    156B -> 166B      -0.21043
    157B -> 164B      -0.21171
    157B -> 167B      -0.12112

 Excited State  10:  3.000-B2U    3.0511 eV  406.36 nm  f=0.0000  <S**2>=2.000
    152A -> 158A      -0.14573
    154A -> 160A      -0.14343
    154A -> 165A      -0.10127
    155A -> 159A       0.17973
    156A -> 163A      -0.33585
    157A -> 160A       0.51246
    157A -> 165A      -0.10265
    152B -> 158B       0.14573
    154B -> 160B       0.14343
    154B -> 165B       0.10127
    155B -> 159B      -0.17973
    156B -> 163B       0.33585
    157B -> 160B      -0.51246
    157B -> 165B       0.10265

 Excited State  11:  3.000-AG     3.0868 eV  401.66 nm  f=0.0000  <S**2>=2.000
    150A -> 158A      -0.15838
    152A -> 159A      -0.27309
    155A -> 158A       0.26783
    156A -> 160A       0.41535
    156A -> 165A      -0.11737
    157A -> 163A      -0.31931
    150B -> 158B       0.15838
    152B -> 159B       0.27309
    155B -> 158B      -0.26783
    156B -> 160B      -0.41535
    156B -> 165B       0.11737
    157B -> 163B       0.31931

 Excited State  12:  3.000-B1U    3.1777 eV  390.17 nm  f=0.0000  <S**2>=2.000
    149A -> 158A      -0.10275
    151A -> 161A       0.10252
    153A -> 158A       0.11521
    153A -> 162A      -0.12406
    154A -> 159A      -0.23239
    154A -> 161A       0.16757
    155A -> 160A       0.22306
    156A -> 158A      -0.29030
    156A -> 162A       0.13416
    157A -> 159A       0.34929
    157A -> 161A      -0.21537
    149B -> 158B       0.10275
    151B -> 161B      -0.10252
    153B -> 158B      -0.11521
    153B -> 162B       0.12406
    154B -> 159B       0.23239
    154B -> 161B      -0.16757
    155B -> 160B      -0.22306
    156B -> 158B       0.29030
    156B -> 162B      -0.13416
    157B -> 159B      -0.34929
    157B -> 161B       0.21537

 Excited State  13:  1.000-B2U    3.1840 eV  389.40 nm  f=0.0545  <S**2>=0.000
    152A -> 158A      -0.26646
    155A -> 159A       0.43906
    156A -> 163A      -0.22854
    157A -> 160A       0.35969
    152B -> 158B      -0.26646
    155B -> 159B       0.43906
    156B -> 163B      -0.22854
    157B -> 160B       0.35969

 Excited State  14:  3.000-B3G    3.1848 eV  389.30 nm  f=0.0000  <S**2>=2.000
    147A -> 158A       0.16746
    149A -> 159A      -0.22314
    151A -> 158A       0.22393
    153A -> 161A      -0.13084
    153A -> 164A       0.11245
    154A -> 158A       0.19667
    154A -> 162A      -0.25644
    156A -> 159A       0.15307
    156A -> 164A       0.10021
    156A -> 167A       0.19447
    157A -> 158A      -0.19469
    157A -> 162A       0.11221
    157A -> 166A       0.25422
    147B -> 158B      -0.16746
    149B -> 159B       0.22314
    151B -> 158B      -0.22393
    153B -> 161B       0.13084
    153B -> 164B      -0.11245
    154B -> 158B      -0.19667
    154B -> 162B       0.25644
    156B -> 159B      -0.15307
    156B -> 164B      -0.10021
    156B -> 167B      -0.19447
    157B -> 158B       0.19469
    157B -> 162B      -0.11221
    157B -> 166B      -0.25422

 Excited State  15:  1.000-AG     3.2278 eV  384.12 nm  f=0.0000  <S**2>=0.000
    150A -> 158A      -0.10278
    152A -> 159A      -0.28846
    155A -> 158A       0.44062
    156A -> 160A       0.31729
    156A -> 165A      -0.11348
    157A -> 163A      -0.26595
    150B -> 158B      -0.10278
    152B -> 159B      -0.28846
    155B -> 158B       0.44062
    156B -> 160B       0.31729
    156B -> 165B      -0.11348
    157B -> 163B      -0.26595

 Excited State  16:  1.000-B3G    3.3431 eV  370.86 nm  f=0.0000  <S**2>=0.000
    154A -> 158A       0.36003
    154A -> 162A      -0.10490
    156A -> 159A       0.37167
    157A -> 158A      -0.35750
    157A -> 162A       0.24593
    154B -> 158B       0.36003
    154B -> 162B      -0.10490
    156B -> 159B       0.37167
    157B -> 158B      -0.35750
    157B -> 162B       0.24593

 Excited State  17:  3.000-B3G    3.3821 eV  366.59 nm  f=0.0000  <S**2>=2.000
    147A -> 158A       0.13584
    149A -> 159A      -0.17547
    151A -> 162A       0.10808
    153A -> 159A       0.15969
    153A -> 161A      -0.19731
    154A -> 158A      -0.13896
    156A -> 159A      -0.34923
    156A -> 161A       0.22589
    156A -> 167A       0.12694
    157A -> 158A       0.33904
    147B -> 158B      -0.13584
    149B -> 159B       0.17547
    151B -> 162B      -0.10808
    153B -> 159B      -0.15969
    153B -> 161B       0.19731
    154B -> 158B       0.13896
    156B -> 159B       0.34923
    156B -> 161B      -0.22589
    156B -> 167B      -0.12694
    157B -> 158B      -0.33904

 Excited State  18:  3.000-AG     3.4108 eV  363.51 nm  f=0.0000  <S**2>=2.000
    148A -> 159A      -0.10774
    150A -> 158A      -0.31367
    152A -> 159A      -0.30255
    153A -> 160A      -0.15630
    155A -> 162A       0.23007
    156A -> 165A       0.25122
    157A -> 163A       0.28082
    148B -> 159B       0.10774
    150B -> 158B       0.31367
    152B -> 159B       0.30255
    153B -> 160B       0.15630
    155B -> 162B      -0.23007
    156B -> 165B      -0.25122
    157B -> 163B      -0.28082

 Excited State  19:  1.000-B1U    3.4718 eV  357.11 nm  f=0.0035  <S**2>=0.000
    153A -> 158A       0.18370
    154A -> 159A       0.41851
    156A -> 158A       0.28480
    157A -> 159A      -0.30587
    157A -> 161A       0.29309
    153B -> 158B       0.18370
    154B -> 159B       0.41851
    156B -> 158B       0.28480
    157B -> 159B      -0.30587
    157B -> 161B       0.29309

 Excited State  20:  3.000-B1U    3.5077 eV  353.46 nm  f=0.0000  <S**2>=2.000
    146A -> 158A       0.17207
    147A -> 159A      -0.23676
    149A -> 158A       0.13470
    149A -> 162A       0.12659
    151A -> 161A      -0.16857
    153A -> 162A       0.10425
    153A -> 166A      -0.10632
    154A -> 164A      -0.19016
    155A -> 160A       0.34015
    156A -> 166A      -0.15776
    156A -> 171A      -0.12156
    157A -> 167A      -0.23156
    146B -> 158B      -0.17207
    147B -> 159B       0.23676
    149B -> 158B      -0.13470
    149B -> 162B      -0.12659
    151B -> 161B       0.16857
    153B -> 162B      -0.10425
    153B -> 166B       0.10632
    154B -> 164B       0.19016
    155B -> 160B      -0.34015
    156B -> 166B       0.15776
    156B -> 171B       0.12156
    157B -> 167B       0.23156

 Alpha virt. eigenvalues --    0.41082   0.41138   0.41246   0.41269   0.41771
 Alpha virt. eigenvalues --    0.42069   0.42105   0.42154   0.42437   0.42489
 Alpha virt. eigenvalues --    0.42849   0.43097   0.43547   0.43681   0.43979

  Beta  occ. eigenvalues --  -10.00825 -10.00808 -10.00780 -10.00778 -10.00760
  Beta  occ. eigenvalues --  -10.00759 -10.00735 -10.00733 -10.00731 -10.00729
  Beta  occ. eigenvalues --  -10.00416 -10.00416 -10.00397 -10.00397 -10.00300
  Beta  occ. eigenvalues --  -10.00300 -10.00290 -10.00289 -10.00282 -10.00282
  Beta  occ. eigenvalues --  -10.00269 -10.00269  -9.99478  -9.99478  -9.99474
  Beta  occ. eigenvalues --   -9.99474  -9.99400  -9.99400  -9.99396  -9.99396
  Beta  occ. eigenvalues --   -9.99350  -9.99350  -9.99347  -9.99346  -9.99314
  Beta  occ. eigenvalues --   -9.99314  -9.99313  -9.99313  -9.99257  -9.99257
  Beta  occ. eigenvalues --   -9.99235  -9.99235  -9.99218  -9.99217  -9.99151
  Beta  occ. eigenvalues --   -9.99150  -9.99137  -9.99137  -0.92799  -0.91785
  Beta  occ. eigenvalues --   -0.91365  -0.90158  -0.89302  -0.88705  -0.87554
  Beta  occ. eigenvalues --   -0.86273  -0.84031  -0.83057  -0.82902  -0.82336
  Beta  occ. eigenvalues --   -0.81652  -0.81442  -0.80484  -0.79665  -0.79359
  Beta  occ. eigenvalues --   -0.77995  -0.77430  -0.76120  -0.75974  -0.75557
  Beta  occ. eigenvalues --   -0.72969  -0.72351  -0.71430  -0.70368  -0.67355
  Beta  occ. eigenvalues --   -0.67234  -0.67029  -0.67026  -0.65100  -0.64932
  Beta  occ. eigenvalues --   -0.64631  -0.63839  -0.63697  -0.63537  -0.62320
  Beta  occ. eigenvalues --   -0.61746  -0.59360  -0.59257  -0.58692  -0.57492
  Beta  occ. eigenvalues --   -0.56242  -0.55991  -0.55678  -0.55455  -0.53166
  Beta  occ. eigenvalues --   -0.53135  -0.52990  -0.52888  -0.52843  -0.50431
  Beta  occ. eigenvalues --   -0.50369  -0.50361  -0.50112  -0.50069  -0.49806
  Beta  occ. eigenvalues --   -0.49209  -0.48552  -0.48379  -0.48144  -0.47619
  Beta  occ. eigenvalues --   -0.47490  -0.47337  -0.47149  -0.46811  -0.46593
  Beta  occ. eigenvalues --   -0.46502  -0.46124  -0.45799  -0.45760  -0.45358
  Beta  occ. eigenvalues --   -0.45350  -0.45042  -0.44925  -0.44206  -0.43504
  Beta  occ. eigenvalues --   -0.43313  -0.42633  -0.42421  -0.42126  -0.41823
  Beta  occ. eigenvalues --   -0.41340  -0.41181  -0.40358  -0.39756  -0.39412
  Beta  occ. eigenvalues --   -0.38788  -0.38636  -0.37861  -0.37767  -0.37657
  Beta  occ. eigenvalues --   -0.37547  -0.37326  -0.37138  -0.36540  -0.36417
  Beta  occ. eigenvalues --   -0.36146  -0.34789  -0.34550  -0.33235  -0.32191
  Beta  occ. eigenvalues --   -0.31409  -0.30064  -0.29032  -0.28349  -0.27262
  Beta  occ. eigenvalues --   -0.23806  -0.23735
  Beta virt. eigenvalues --   -0.05191  -0.05059  -0.01117   0.00114   0.00155
  Beta virt. eigenvalues --    0.01397   0.02658   0.03914   0.04679   0.05847
  Beta virt. eigenvalues --    0.06436   0.06967   0.07094   0.09052   0.09166

 Mulliken charges and spin densities:
               1          2
     1  C   -0.138047   0.000000
     2  C   -0.184479  -0.000000
     3  C    0.111340   0.000000
     4  C   -0.017634  -0.000000
     5  C    0.111340   0.000000
     6  C   -0.184479  -0.000000
     7  C    0.176657   0.000000
     8  C   -0.017634  -0.000000
     9  C    0.111340   0.000000
    10  C    0.176657   0.000000
    11  C   -0.184479  -0.000000
    12  H    0.081568   0.000000
    13  C   -0.138047   0.000000
    14  C   -0.184479  -0.000000
    15  C    0.111340   0.000000
    16  C    0.176657   0.000000
    17  C    0.176657   0.000000
    18  H    0.103225  -0.000000
    19  H    0.081568   0.000000
    20  H    0.081568   0.000000
    21  H    0.103225  -0.000000
    22  H    0.081568   0.000000
    23  C   -0.360038  -0.000000
    24  C    0.286659   0.000000
    25  C    0.286659   0.000000
    26  C   -0.360038  -0.000000
    27  H    0.077914  -0.000000
    28  H    0.077914  -0.000000
    29  C   -0.388817   0.000000
    30  C    0.284837  -0.000000
    31  C    0.284837  -0.000000
    32  C   -0.388817   0.000000
    33  H    0.088771   0.000000
    34  H    0.088771   0.000000
    35  C    0.286659   0.000000
    36  C   -0.360038  -0.000000
    37  C   -0.360038  -0.000000
    38  C    0.286659   0.000000
    39  H    0.077914  -0.000000
    40  H    0.077914  -0.000000
    41  C    0.284837  -0.000000
    42  C   -0.388817   0.000000
    43  C   -0.388817   0.000000
    44  C    0.284837  -0.000000
    45  H    0.088771   0.000000
    46  H    0.088771   0.000000
    47  C   -0.360476   0.000000
    48  C   -0.360476   0.000000
    49  H    0.089951   0.000000
    50  H    0.089951   0.000000
    51  C   -0.360476   0.000000
    52  C   -0.360476   0.000000
    53  C    0.235338  -0.000000
    54  C    0.235338  -0.000000
    55  H    0.089951   0.000000
    56  H    0.089951   0.000000
    57  C    0.235338  -0.000000
    58  C   -0.232574   0.000000
    59  C   -0.087464  -0.000000
    60  C   -0.087464  -0.000000
    61  C   -0.232574   0.000000
    62  C    0.235338  -0.000000
    63  H    0.099354   0.000000
    64  H    0.107685   0.000000
    65  H    0.107685   0.000000
    66  H    0.099354   0.000000
    67  C   -0.232574   0.000000
    68  C   -0.232574   0.000000
    69  C   -0.087464  -0.000000
    70  C   -0.087464  -0.000000
    71  H    0.099354   0.000000
    72  H    0.099354   0.000000
    73  H    0.107685   0.000000
    74  H    0.107685   0.000000
 Sum of Mulliken charges =  -0.00000   0.00000

 Dipole moment (field-independent basis, Debye):
    X=              0.0000    Y=             -0.0000    Z=              0.0000  Tot=              0.0000
 Quadrupole moment (field-independent basis, Debye-Ang):
   XX=           -289.9553   YY=           -231.9753   ZZ=           -236.5392
   XY=              0.0000   XZ=              0.0000   YZ=              0.0000

 Normal termination of Gaussian 16 at Mon Feb  3 21:30:26 2020.
