 Gaussian 16, Revision A.03,
 Gaussian 16:  EM64L-G16RevA.03 25-Dec-2016

 ----------------------------------------------------------------------
 #P uLC-wHPBE/def2tzvp iop(3/107=0175000000, 3/108=0175000000) td(nstat
 es=20)
 ----------------------------------------------------------------------

 -------
 H30 C56
 -------
 Symbolic Z-matrix:
 Charge =  0 Multiplicity = 1

                         Standard orientation:
 ---------------------------------------------------------------------
 Center     Atomic      Atomic             Coordinates (Angstroms)
 Number     Number       Type             X           Y           Z
 ---------------------------------------------------------------------
      1          6           0        0.000000    0.000000    3.538705
      2          6           0        0.000000    1.198545    2.844495
      3          6           0        0.000000    1.227049    1.445262
      4          6           0        0.000000    0.000000    0.731208
      5          6           0       -0.000000   -1.227049    1.445262
      6          6           0       -0.000000   -1.198545    2.844495
      7          6           0        0.000000    2.512936    0.723526
      8          6           0        0.000000    0.000000   -0.731208
      9          6           0        0.000000    1.227049   -1.445262
     10          6           0        0.000000    2.512936   -0.723526
     11          6           0        0.000000    1.198545   -2.844495
     12          1           0        0.000000    2.125260   -3.412973
     13          6           0        0.000000    0.000000   -3.538705
     14          6           0       -0.000000   -1.198545   -2.844495
     15          6           0       -0.000000   -1.227049   -1.445262
     16          6           0       -0.000000   -2.512936   -0.723526
     17          6           0       -0.000000   -2.512936    0.723526
     18          1           0        0.000000    0.000000    4.628930
     19          1           0       -0.000000    2.125260    3.412973
     20          1           0       -0.000000   -2.125260    3.412973
     21          1           0        0.000000    0.000000   -4.628930
     22          1           0       -0.000000   -2.125260   -3.412973
     23          6           0        0.000000    3.717018    1.389442
     24          6           0        0.000000    4.973457    0.721324
     25          6           0        0.000000    4.973457   -0.721324
     26          6           0        0.000000    3.717018   -1.389442
     27          1           0        0.000000    3.749336    2.477450
     28          1           0        0.000000    3.749336   -2.477450
     29          6           0        0.000000    6.182878    1.406482
     30          6           0        0.000000    7.419524    0.725811
     31          6           0        0.000000    7.419524   -0.725811
     32          6           0        0.000000    6.182878   -1.406482
     33          1           0        0.000000    6.181523    2.498725
     34          1           0        0.000000    6.181523   -2.498725
     35          6           0       -0.000000   -4.973457    0.721324
     36          6           0       -0.000000   -3.717018    1.389442
     37          6           0       -0.000000   -3.717018   -1.389442
     38          6           0       -0.000000   -4.973457   -0.721324
     39          1           0       -0.000000   -3.749336    2.477450
     40          1           0       -0.000000   -3.749336   -2.477450
     41          6           0       -0.000000   -7.419524    0.725811
     42          6           0       -0.000000   -6.182878    1.406482
     43          6           0       -0.000000   -6.182878   -1.406482
     44          6           0       -0.000000   -7.419524   -0.725811
     45          1           0       -0.000000   -6.181523    2.498725
     46          1           0       -0.000000   -6.181523   -2.498725
     47          6           0        0.000000    8.646145    1.405736
     48          6           0        0.000000    8.646145   -1.405736
     49          1           0        0.000000    8.646441    2.497902
     50          1           0        0.000000    8.646441   -2.497902
     51          6           0       -0.000000   -8.646145    1.405736
     52          6           0       -0.000000   -8.646145   -1.405736
     53          6           0        0.000000   -9.868891   -0.725245
     54          6           0       -0.000000   -9.868891    0.725245
     55          1           0       -0.000000   -8.646441    2.497902
     56          1           0       -0.000000   -8.646441   -2.497902
     57          6           0        0.000000    9.868891    0.725245
     58          6           0        0.000000   11.110078    1.405248
     59          6           0        0.000000   11.110078   -1.405248
     60          6           0        0.000000    9.868891   -0.725245
     61          1           0        0.000000   11.110883    2.497527
     62          1           0        0.000000   11.110883   -2.497527
     63          6           0       -0.000000  -11.110078    1.405248
     64          6           0       -0.000000  -11.110078   -1.405248
     65          6           0        0.000000  -12.317185   -0.724704
     66          6           0       -0.000000  -12.317185    0.724704
     67          1           0       -0.000000  -11.110883    2.497527
     68          1           0       -0.000000  -11.110883   -2.497527
     69          6           0        0.000000   12.317185    0.724704
     70          6           0        0.000000   13.580311    1.408153
     71          6           0        0.000000   14.753473    0.715698
     72          6           0        0.000000   14.753473   -0.715698
     73          6           0        0.000000   13.580311   -1.408153
     74          6           0        0.000000   12.317185   -0.724704
     75          1           0        0.000000   13.578161    2.499525
     76          1           0        0.000000   15.704466    1.249241
     77          1           0        0.000000   15.704466   -1.249241
     78          1           0        0.000000   13.578161   -2.499525
     79          6           0       -0.000000  -13.580311   -1.408153
     80          6           0       -0.000000  -13.580311    1.408153
     81          6           0       -0.000000  -14.753473   -0.715698
     82          1           0       -0.000000  -13.578161   -2.499525
     83          6           0       -0.000000  -14.753473    0.715698
     84          1           0       -0.000000  -13.578161    2.499525
     85          1           0       -0.000000  -15.704466   -1.249241
     86          1           0       -0.000000  -15.704466    1.249241
 ---------------------------------------------------------------------

 SCF Done:  E(ULC-wHPBE) =  -2150.76710770     A.U. after   15 cycles

 Excitation energies and oscillator strengths:

 Excited State   1:  3.000-B1U    0.4596 eV 2697.73 nm  f=0.0000  <S**2>=2.000
    179A -> 186A      -0.14014
    181A -> 188A       0.12709
    182A -> 184A      -0.54576
    183A -> 185A      -0.55029
    179B -> 186B       0.14014
    181B -> 188B      -0.12709
    182B -> 184B       0.54576
    183B -> 185B       0.55029
    182A <- 184A      -0.27873
    183A <- 185A      -0.28227
    182B <- 184B       0.27873
    183B <- 185B       0.28227
 This state for optimization and/or second-order correction.
 Total Energy, E(TD-HF/TD-DFT) =  -2150.75021818
 Copying the excited state density for this state as the 1-particle RhoCI density.

 Excited State   2:  3.000-B3G    0.4866 eV 2547.81 nm  f=0.0000  <S**2>=2.000
    179A -> 188A      -0.12223
    181A -> 186A       0.12576
    182A -> 185A      -0.54187
    183A -> 184A      -0.53803
    179B -> 188B       0.12223
    181B -> 186B      -0.12576
    182B -> 185B       0.54187
    183B -> 184B       0.53803
    182A <- 185A      -0.26613
    183A <- 184A      -0.26286
    182B <- 185B       0.26613
    183B <- 184B       0.26286

 Excited State   3:  3.000-B1U    1.6785 eV  738.65 nm  f=0.0000  <S**2>=2.000
    177A -> 185A      -0.10712
    179A -> 184A       0.35322
    181A -> 185A      -0.33218
    182A -> 186A       0.32376
    183A -> 188A       0.30138
    183A -> 190A      -0.11039
    177B -> 185B       0.10712
    179B -> 184B      -0.35322
    181B -> 185B       0.33218
    182B -> 186B      -0.32376
    183B -> 188B      -0.30138
    183B -> 190B       0.11039

 Excited State   4:  3.000-B3G    1.7222 eV  719.91 nm  f=0.0000  <S**2>=2.000
    177A -> 184A      -0.12506
    179A -> 185A       0.34753
    181A -> 184A      -0.33344
    182A -> 188A       0.29326
    182A -> 190A      -0.13166
    183A -> 186A       0.32368
    177B -> 184B       0.12506
    179B -> 185B      -0.34753
    181B -> 184B       0.33344
    182B -> 188B      -0.29326
    182B -> 190B       0.13166
    183B -> 186B      -0.32368

 Excited State   5:  1.000-B3G    1.9380 eV  639.77 nm  f=0.0000  <S**2>=0.000
    182A -> 185A       0.49356
    183A -> 184A       0.50485
    182B -> 185B       0.49356
    183B -> 184B       0.50485

 Excited State   6:  1.000-B1U    1.9383 eV  639.65 nm  f=0.0719  <S**2>=0.000
    182A -> 184A       0.49892
    183A -> 185A       0.49945
    182B -> 184B       0.49892
    183B -> 185B       0.49945

 Excited State   7:  3.000-B1U    2.5619 eV  483.95 nm  f=0.0000  <S**2>=2.000
    174A -> 185A       0.15138
    175A -> 184A       0.28065
    177A -> 185A       0.24115
    179A -> 186A       0.25661
    180A -> 187A      -0.16026
    181A -> 188A      -0.26023
    182A -> 191A       0.24960
    183A -> 190A       0.17378
    183A -> 193A       0.17602
    174B -> 185B      -0.15138
    175B -> 184B      -0.28065
    177B -> 185B      -0.24115
    179B -> 186B      -0.25661
    180B -> 187B       0.16026
    181B -> 188B       0.26023
    182B -> 191B      -0.24960
    183B -> 190B      -0.17378
    183B -> 193B      -0.17602

 Excited State   8:  3.000-AG     2.5831 eV  479.97 nm  f=0.0000  <S**2>=2.000
    178A -> 185A      -0.21816
    179A -> 187A      -0.17370
    180A -> 184A       0.46930
    180A -> 186A       0.22666
    182A -> 187A      -0.27031
    183A -> 189A       0.11139
    178B -> 185B       0.21816
    179B -> 187B       0.17370
    180B -> 184B      -0.46930
    180B -> 186B      -0.22666
    182B -> 187B       0.27031
    183B -> 189B      -0.11139

 Excited State   9:  3.000-B3G    2.6618 eV  465.79 nm  f=0.0000  <S**2>=2.000
    174A -> 184A      -0.19882
    175A -> 185A      -0.27829
    177A -> 184A      -0.22130
    179A -> 188A      -0.22620
    181A -> 186A       0.26672
    182A -> 190A      -0.12539
    182A -> 193A      -0.21472
    183A -> 191A      -0.25761
    174B -> 184B       0.19882
    175B -> 185B       0.27829
    177B -> 184B       0.22130
    179B -> 188B       0.22620
    181B -> 186B      -0.26672
    182B -> 190B       0.12539
    182B -> 193B       0.21472
    183B -> 191B       0.25761

 Excited State  10:  3.000-B2U    2.7851 eV  445.17 nm  f=0.0000  <S**2>=2.000
    176A -> 185A       0.12101
    178A -> 184A      -0.36010
    180A -> 185A       0.50788
    180A -> 188A       0.15211
    183A -> 187A      -0.14550
    176B -> 185B      -0.12101
    178B -> 184B       0.36010
    180B -> 185B      -0.50788
    180B -> 188B      -0.15211
    183B -> 187B       0.14550

 Excited State  11:  3.000-B2U    2.9343 eV  422.54 nm  f=0.0000  <S**2>=2.000
    176A -> 185A      -0.10142
    178A -> 184A       0.12913
    180A -> 185A      -0.11222
    181A -> 187A       0.16383
    181A -> 192A      -0.10014
    182A -> 189A       0.36239
    183A -> 187A      -0.49433
    183A -> 192A      -0.13391
    176B -> 185B       0.10142
    178B -> 184B      -0.12913
    180B -> 185B       0.11222
    181B -> 187B      -0.16383
    181B -> 192B       0.10014
    182B -> 189B      -0.36239
    183B -> 187B       0.49433
    183B -> 192B       0.13391

 Excited State  12:  3.000-AG     2.9419 eV  421.44 nm  f=0.0000  <S**2>=2.000
    176A -> 184A      -0.19047
    178A -> 185A       0.28898
    179A -> 187A      -0.11841
    180A -> 184A      -0.23759
    182A -> 187A      -0.39099
    182A -> 192A      -0.12652
    183A -> 189A       0.31434
    176B -> 184B       0.19047
    178B -> 185B      -0.28898
    179B -> 187B       0.11841
    180B -> 184B       0.23759
    182B -> 187B       0.39099
    182B -> 192B       0.12652
    183B -> 189B      -0.31434

 Excited State  13:  1.000-B3G    2.9726 eV  417.09 nm  f=0.0000  <S**2>=0.000
    179A -> 185A      -0.32276
    181A -> 184A       0.43125
    182A -> 185A       0.11908
    182A -> 188A      -0.21559
    183A -> 184A      -0.13579
    183A -> 186A      -0.33387
    179B -> 185B      -0.32276
    181B -> 184B       0.43125
    182B -> 185B       0.11908
    182B -> 188B      -0.21559
    183B -> 184B      -0.13579
    183B -> 186B      -0.33387

 Excited State  14:  1.000-B1U    2.9820 eV  415.78 nm  f=0.0052  <S**2>=0.000
    179A -> 184A      -0.38695
    181A -> 185A       0.39757
    182A -> 186A      -0.30195
    183A -> 188A      -0.28922
    179B -> 184B      -0.38695
    181B -> 185B       0.39757
    182B -> 186B      -0.30195
    183B -> 188B      -0.28922

 Excited State  15:  3.000-B1U    3.0169 eV  410.97 nm  f=0.0000  <S**2>=2.000
    177A -> 185A      -0.11762
    177A -> 188A      -0.15978
    179A -> 184A       0.11702
    179A -> 186A       0.10185
    181A -> 185A       0.22427
    181A -> 188A       0.17060
    181A -> 190A       0.15378
    182A -> 184A       0.32354
    182A -> 186A       0.15870
    183A -> 185A      -0.34293
    183A -> 188A      -0.16866
    183A -> 190A      -0.13403
    177B -> 185B       0.11762
    177B -> 188B       0.15978
    179B -> 184B      -0.11702
    179B -> 186B      -0.10185
    181B -> 185B      -0.22427
    181B -> 188B      -0.17060
    181B -> 190B      -0.15378
    182B -> 184B      -0.32354
    182B -> 186B      -0.15870
    183B -> 185B       0.34293
    183B -> 188B       0.16866
    183B -> 190B       0.13403

 Excited State  16:  1.000-B2U    3.0541 eV  405.96 nm  f=0.1162  <S**2>=0.000
    176A -> 185A       0.11680
    178A -> 184A      -0.29198
    180A -> 185A       0.42513
    180A -> 188A       0.11256
    182A -> 189A      -0.23799
    183A -> 187A       0.32241
    176B -> 185B       0.11680
    178B -> 184B      -0.29198
    180B -> 185B       0.42513
    180B -> 188B       0.11256
    182B -> 189B      -0.23799
    183B -> 187B       0.32241

 Excited State  17:  1.000-AG     3.0860 eV  401.77 nm  f=0.0000  <S**2>=0.000
    176A -> 184A       0.12893
    178A -> 185A      -0.30385
    180A -> 184A       0.41111
    182A -> 187A       0.30403
    182A -> 192A       0.12967
    183A -> 189A      -0.27266
    176B -> 184B       0.12893
    178B -> 185B      -0.30385
    180B -> 184B       0.41111
    182B -> 187B       0.30403
    182B -> 192B       0.12967
    183B -> 189B      -0.27266

 Excited State  18:  3.000-B3G    3.1250 eV  396.75 nm  f=0.0000  <S**2>=2.000
    177A -> 184A       0.10044
    177A -> 186A       0.11549
    179A -> 185A      -0.15697
    179A -> 188A      -0.13004
    181A -> 184A      -0.18428
    182A -> 185A      -0.37534
    182A -> 188A      -0.17325
    183A -> 184A       0.39008
    183A -> 186A       0.12375
    177B -> 184B      -0.10044
    177B -> 186B      -0.11549
    179B -> 185B       0.15697
    179B -> 188B       0.13004
    181B -> 184B       0.18428
    182B -> 185B       0.37534
    182B -> 188B       0.17325
    183B -> 184B      -0.39008
    183B -> 186B      -0.12375

 Excited State  19:  3.000-B1U    3.1627 eV  392.02 nm  f=0.0000  <S**2>=2.000
    172A -> 184A      -0.21233
    174A -> 185A      -0.20925
    175A -> 186A       0.16888
    177A -> 188A       0.18837
    179A -> 191A       0.17157
    180A -> 187A      -0.29375
    181A -> 190A      -0.19522
    182A -> 195A       0.18363
    183A -> 185A      -0.12671
    183A -> 193A      -0.15841
    183A -> 196A       0.10572
    172B -> 184B       0.21233
    174B -> 185B       0.20925
    175B -> 186B      -0.16888
    177B -> 188B      -0.18837
    179B -> 191B      -0.17157
    180B -> 187B       0.29375
    181B -> 190B       0.19522
    182B -> 195B      -0.18363
    183B -> 185B       0.12671
    183B -> 193B       0.15841
    183B -> 196B      -0.10572

 Excited State  20:  1.000-B3G    3.1742 eV  390.60 nm  f=0.0000  <S**2>=0.000
    177A -> 184A      -0.13345
    179A -> 185A       0.28133
    181A -> 186A       0.11787
    182A -> 185A       0.39798
    182A -> 188A       0.23501
    183A -> 184A      -0.38266
    177B -> 184B      -0.13345
    179B -> 185B       0.28133
    181B -> 186B       0.11787
    182B -> 185B       0.39798
    182B -> 188B       0.23501
    183B -> 184B      -0.38266

 Alpha virt. eigenvalues --    0.92789   0.93251   0.93788   0.93837   0.94047
 Alpha virt. eigenvalues --    0.94578   0.94702   0.94852   0.95383   0.95973
 Alpha virt. eigenvalues --    0.96458   0.96585   0.97056   0.97058   0.97324

  Beta  occ. eigenvalues --  -10.00690 -10.00674 -10.00648 -10.00646 -10.00628
  Beta  occ. eigenvalues --  -10.00627 -10.00596 -10.00594 -10.00592 -10.00589
  Beta  occ. eigenvalues --  -10.00306 -10.00306 -10.00289 -10.00289 -10.00250
  Beta  occ. eigenvalues --  -10.00250 -10.00233 -10.00233 -10.00165 -10.00164
  Beta  occ. eigenvalues --  -10.00149 -10.00149 -10.00145 -10.00145 -10.00131
  Beta  occ. eigenvalues --  -10.00131  -9.99347  -9.99347  -9.99344  -9.99344
  Beta  occ. eigenvalues --   -9.99303  -9.99303  -9.99299  -9.99299  -9.99238
  Beta  occ. eigenvalues --   -9.99238  -9.99234  -9.99234  -9.99211  -9.99211
  Beta  occ. eigenvalues --   -9.99207  -9.99207  -9.99155  -9.99155  -9.99154
  Beta  occ. eigenvalues --   -9.99154  -9.99098  -9.99098  -9.99078  -9.99078
  Beta  occ. eigenvalues --   -9.99075  -9.99073  -9.99009  -9.99008  -9.98995
  Beta  occ. eigenvalues --   -9.98995  -0.92633  -0.91739  -0.91459  -0.90577
  Beta  occ. eigenvalues --   -0.89976  -0.88675  -0.88554  -0.87761  -0.86105
  Beta  occ. eigenvalues --   -0.84930  -0.82861  -0.82814  -0.82505  -0.82415
  Beta  occ. eigenvalues --   -0.81922  -0.81086  -0.80773  -0.80286  -0.79109
  Beta  occ. eigenvalues --   -0.79053  -0.77926  -0.77224  -0.77023  -0.75536
  Beta  occ. eigenvalues --   -0.75162  -0.74954  -0.72207  -0.71685  -0.71685
  Beta  occ. eigenvalues --   -0.71032  -0.68219  -0.67328  -0.66910  -0.66904
  Beta  occ. eigenvalues --   -0.66083  -0.65043  -0.64964  -0.64168  -0.64106
  Beta  occ. eigenvalues --   -0.63820  -0.63723  -0.63049  -0.62903  -0.61612
  Beta  occ. eigenvalues --   -0.59926  -0.59681  -0.59160  -0.57289  -0.57026
  Beta  occ. eigenvalues --   -0.56925  -0.55971  -0.55480  -0.55103  -0.54984
  Beta  occ. eigenvalues --   -0.53307  -0.53212  -0.52824  -0.52708  -0.51881
  Beta  occ. eigenvalues --   -0.51036  -0.50409  -0.50338  -0.50215  -0.50104
  Beta  occ. eigenvalues --   -0.49868  -0.49721  -0.49419  -0.48680  -0.48417
  Beta  occ. eigenvalues --   -0.48379  -0.47694  -0.47671  -0.47363  -0.47149
  Beta  occ. eigenvalues --   -0.47076  -0.47017  -0.46833  -0.46252  -0.46242
  Beta  occ. eigenvalues --   -0.45943  -0.45920  -0.45841  -0.45812  -0.45560
  Beta  occ. eigenvalues --   -0.45147  -0.44968  -0.44620  -0.44485  -0.43596
  Beta  occ. eigenvalues --   -0.43574  -0.43389  -0.42541  -0.42432  -0.42339
  Beta  occ. eigenvalues --   -0.41586  -0.41177  -0.41138  -0.40879  -0.40350
  Beta  occ. eigenvalues --   -0.39761  -0.38923  -0.38814  -0.38722  -0.38447
  Beta  occ. eigenvalues --   -0.38072  -0.37819  -0.37547  -0.37544  -0.37379
  Beta  occ. eigenvalues --   -0.37066  -0.36628  -0.36314  -0.36190  -0.36046
  Beta  occ. eigenvalues --   -0.35729  -0.34538  -0.33653  -0.33024  -0.31467
  Beta  occ. eigenvalues --   -0.31453  -0.30164  -0.29819  -0.27495  -0.27266
  Beta  occ. eigenvalues --   -0.27188  -0.22847  -0.22800
  Beta virt. eigenvalues --   -0.06139  -0.06090  -0.01380  -0.01156  -0.01126
  Beta virt. eigenvalues --    0.01155   0.01591   0.02892   0.03123   0.04382
  Beta virt. eigenvalues --    0.05423   0.05930   0.06462   0.07043   0.07078

 Mulliken charges and spin densities:
               1          2
     1  C   -0.138229   0.000000
     2  C   -0.184028  -0.000000
     3  C    0.111029   0.000000
     4  C   -0.017572  -0.000000
     5  C    0.111029   0.000000
     6  C   -0.184028  -0.000000
     7  C    0.176132   0.000000
     8  C   -0.017572  -0.000000
     9  C    0.111029   0.000000
    10  C    0.176132   0.000000
    11  C   -0.184028  -0.000000
    12  H    0.081383  -0.000000
    13  C   -0.138229   0.000000
    14  C   -0.184028  -0.000000
    15  C    0.111029   0.000000
    16  C    0.176132   0.000000
    17  C    0.176132   0.000000
    18  H    0.103050   0.000000
    19  H    0.081383  -0.000000
    20  H    0.081383  -0.000000
    21  H    0.103050   0.000000
    22  H    0.081383  -0.000000
    23  C   -0.360337  -0.000000
    24  C    0.287802  -0.000000
    25  C    0.287802  -0.000000
    26  C   -0.360337  -0.000000
    27  H    0.077354  -0.000000
    28  H    0.077354  -0.000000
    29  C   -0.396259   0.000000
    30  C    0.303632  -0.000000
    31  C    0.303632  -0.000000
    32  C   -0.396259   0.000000
    33  H    0.088228   0.000000
    34  H    0.088228   0.000000
    35  C    0.287802  -0.000000
    36  C   -0.360337  -0.000000
    37  C   -0.360337  -0.000000
    38  C    0.287802  -0.000000
    39  H    0.077354  -0.000000
    40  H    0.077354  -0.000000
    41  C    0.303632  -0.000000
    42  C   -0.396259   0.000000
    43  C   -0.396259   0.000000
    44  C    0.303632  -0.000000
    45  H    0.088228   0.000000
    46  H    0.088228   0.000000
    47  C   -0.390734   0.000000
    48  C   -0.390734   0.000000
    49  H    0.089508   0.000000
    50  H    0.089508   0.000000
    51  C   -0.390734   0.000000
    52  C   -0.390734   0.000000
    53  C    0.284139  -0.000000
    54  C    0.284139  -0.000000
    55  H    0.089508   0.000000
    56  H    0.089508   0.000000
    57  C    0.284139  -0.000000
    58  C   -0.351282  -0.000000
    59  C   -0.351282  -0.000000
    60  C    0.284139  -0.000000
    61  H    0.089902  -0.000000
    62  H    0.089902  -0.000000
    63  C   -0.351282  -0.000000
    64  C   -0.351282  -0.000000
    65  C    0.232719   0.000000
    66  C    0.232719   0.000000
    67  H    0.089902  -0.000000
    68  H    0.089902  -0.000000
    69  C    0.232719   0.000000
    70  C   -0.232555  -0.000000
    71  C   -0.086823   0.000000
    72  C   -0.086823   0.000000
    73  C   -0.232555  -0.000000
    74  C    0.232719   0.000000
    75  H    0.099015  -0.000000
    76  H    0.107551   0.000000
    77  H    0.107551   0.000000
    78  H    0.099015  -0.000000
    79  C   -0.232555  -0.000000
    80  C   -0.232555  -0.000000
    81  C   -0.086823   0.000000
    82  H    0.099015  -0.000000
    83  C   -0.086823   0.000000
    84  H    0.099015  -0.000000
    85  H    0.107551   0.000000
    86  H    0.107551   0.000000
 Sum of Mulliken charges =  -0.00000   0.00000

 Dipole moment (field-independent basis, Debye):
    X=              0.0000    Y=             -0.0000    Z=             -0.0000  Tot=              0.0000
 Quadrupole moment (field-independent basis, Debye-Ang):
   XX=           -337.9246   YY=           -269.2943   ZZ=           -275.9685
   XY=              0.0000   XZ=              0.0000   YZ=              0.0000

 Normal termination of Gaussian 16 at Tue Feb  4 00:41:34 2020.
