 Gaussian 16, Revision A.03,
 Gaussian 16:  EM64L-G16RevA.03 25-Dec-2016

 ----------------------------------------------------------------------
 #P uLC-wHPBE/def2tzvp iop(3/107=0179000000, 3/108=0179000000) td(NStat
 es=20)
 ----------------------------------------------------------------------

 -------
 H16 C28
 -------
 Symbolic Z-matrix:
 Charge =  0 Multiplicity = 1

                         Standard orientation:
 ---------------------------------------------------------------------
 Center     Atomic      Atomic             Coordinates (Angstroms)
 Number     Number       Type             X           Y           Z
 ---------------------------------------------------------------------
      1          6           0        0.000000    3.526831   -2.987308
      2          6           0        0.000000    2.845514   -1.769364
      3          6           0        0.000000    1.451247   -1.708575
      4          6           0        0.000000    0.720817   -2.927062
      5          6           0        0.000000    1.418580   -4.167191
      6          6           0        0.000000    2.823243   -4.176555
      7          6           0        0.000000    0.722182   -0.426508
      8          6           0       -0.000000   -0.720817   -2.927062
      9          6           0       -0.000000   -1.451247   -1.708575
     10          6           0       -0.000000   -0.722182   -0.426508
     11          6           0       -0.000000   -2.845514   -1.769364
     12          1           0        0.000000   -3.433438   -0.853842
     13          6           0       -0.000000   -3.526831   -2.987308
     14          6           0       -0.000000   -2.823243   -4.176555
     15          6           0       -0.000000   -1.418580   -4.167191
     16          6           0        0.000000   -0.677354   -5.396594
     17          6           0        0.000000    0.677354   -5.396594
     18          1           0        0.000000    1.234623   -6.334793
     19          1           0       -0.000000   -1.234623   -6.334793
     20          1           0        0.000000    4.617107   -2.993917
     21          1           0        0.000000    3.433438   -0.853842
     22          1           0        0.000000    3.346947   -5.133725
     23          1           0       -0.000000   -4.617107   -2.993917
     24          1           0       -0.000000   -3.346947   -5.133725
     25          6           0        0.000000    1.387876    0.782013
     26          6           0        0.000000    0.717106    2.030299
     27          6           0       -0.000000   -0.717106    2.030299
     28          6           0       -0.000000   -1.387876    0.782013
     29          1           0        0.000000    2.476526    0.810228
     30          1           0       -0.000000   -2.476526    0.810228
     31          6           0        0.000000    1.402238    3.253549
     32          6           0        0.000000    0.720581    4.471680
     33          6           0       -0.000000   -0.720581    4.471680
     34          6           0       -0.000000   -1.402238    3.253549
     35          1           0        0.000000    2.494585    3.253130
     36          1           0       -0.000000   -2.494585    3.253130
     37          6           0        0.000000    1.404975    5.728127
     38          6           0        0.000000    0.712695    6.905489
     39          6           0       -0.000000   -0.712695    6.905489
     40          6           0       -0.000000   -1.404975    5.728127
     41          1           0        0.000000    2.496311    5.725697
     42          1           0        0.000000    1.248353    7.855216
     43          1           0       -0.000000   -1.248353    7.855216
     44          1           0       -0.000000   -2.496311    5.725697
 ---------------------------------------------------------------------

 SCF Done:  E(ULC-wHPBE) =  -1076.00658913     A.U. after   14 cycles

 Excitation energies and oscillator strengths:

 Excited State   1:  3.000-B2     1.5523 eV  798.71 nm  f=0.0000  <S**2>=2.000
     88A -> 97A        0.10059
     91A -> 94A        0.11902
     92A -> 93A       -0.67131
     88B -> 97B       -0.10059
     91B -> 94B       -0.11902
     92B -> 93B        0.67131
     92A <- 93A       -0.13829
     92B <- 93B        0.13829
 This state for optimization and/or second-order correction.
 Total Energy, E(TD-HF/TD-DFT) =  -1075.94954272
 Copying the excited state density for this state as the 1-particle RhoCI density.

 Excited State   2:  3.000-B2     2.5490 eV  486.41 nm  f=0.0000  <S**2>=2.000
     88A -> 93A        0.15025
     89A -> 94A       -0.13313
     90A -> 93A       -0.19729
     90A -> 95A        0.11242
     91A -> 94A       -0.54511
     91A -> 96A        0.13726
     92A -> 95A       -0.16381
     92A -> 97A       -0.16333
     88B -> 93B       -0.15025
     89B -> 94B        0.13313
     90B -> 93B        0.19729
     90B -> 95B       -0.11242
     91B -> 94B        0.54511
     91B -> 96B       -0.13726
     92B -> 95B        0.16381
     92B -> 97B        0.16333

 Excited State   3:  3.000-A1     2.7909 eV  444.24 nm  f=0.0000  <S**2>=2.000
     88A -> 94A        0.12648
     89A -> 93A        0.15483
     91A -> 93A       -0.51816
     91A -> 97A        0.15349
     92A -> 94A        0.32974
     88B -> 94B       -0.12648
     89B -> 93B       -0.15483
     91B -> 93B        0.51816
     91B -> 97B       -0.15349
     92B -> 94B       -0.32974

 Excited State   4:  1.000-B2     2.9211 eV  424.45 nm  f=0.0269  <S**2>=0.000
     92A -> 93A        0.69863
     92B -> 93B        0.69863

 Excited State   5:  3.000-B2     3.0084 eV  412.12 nm  f=0.0000  <S**2>=2.000
     86A -> 93A       -0.12259
     88A -> 93A        0.30564
     90A -> 93A       -0.28710
     91A -> 94A        0.26973
     92A -> 95A       -0.18190
     92A -> 97A       -0.33419
     92A ->100A       -0.11380
     86B -> 93B        0.12259
     88B -> 93B       -0.30564
     90B -> 93B        0.28710
     91B -> 94B       -0.26973
     92B -> 95B        0.18190
     92B -> 97B        0.33419
     92B ->100B        0.11380

 Excited State   6:  3.000-A1     3.1837 eV  389.44 nm  f=0.0000  <S**2>=2.000
     89A -> 93A       -0.19011
     90A -> 94A       -0.16148
     91A -> 93A        0.32386
     92A -> 94A        0.49801
     92A -> 96A        0.22174
     89B -> 93B        0.19011
     90B -> 94B        0.16148
     91B -> 93B       -0.32386
     92B -> 94B       -0.49801
     92B -> 96B       -0.22174

 Excited State   7:  1.000-A1     3.3061 eV  375.01 nm  f=0.0187  <S**2>=0.000
     89A -> 93A       -0.17863
     90A -> 94A       -0.10723
     91A -> 93A        0.50279
     91A -> 95A       -0.12297
     92A -> 94A        0.37394
     92A -> 96A        0.16756
     89B -> 93B       -0.17863
     90B -> 94B       -0.10723
     91B -> 93B        0.50279
     91B -> 95B       -0.12297
     92B -> 94B        0.37394
     92B -> 96B        0.16756

 Excited State   8:  3.000-A1     3.5808 eV  346.25 nm  f=0.0000  <S**2>=2.000
     87A -> 93A       -0.12302
     89A -> 93A       -0.42686
     90A -> 94A       -0.18418
     91A -> 95A        0.40169
     92A -> 96A       -0.24028
     92A -> 99A       -0.11298
     87B -> 93B        0.12302
     89B -> 93B        0.42686
     90B -> 94B        0.18418
     91B -> 95B       -0.40169
     92B -> 96B        0.24028
     92B -> 99B        0.11298

 Excited State   9:  3.000-B2     3.5967 eV  344.71 nm  f=0.0000  <S**2>=2.000
     86A -> 93A       -0.15792
     88A -> 93A        0.20907
     90A -> 93A        0.25371
     90A -> 95A       -0.40238
     91A -> 94A       -0.16260
     92A -> 95A        0.29074
     92A -> 97A       -0.17397
     92A -> 98A        0.15052
     86B -> 93B        0.15792
     88B -> 93B       -0.20907
     90B -> 93B       -0.25371
     90B -> 95B        0.40238
     91B -> 94B        0.16260
     92B -> 95B       -0.29074
     92B -> 97B        0.17397
     92B -> 98B       -0.15052

 Excited State  10:  3.000-A1     3.6967 eV  335.39 nm  f=0.0000  <S**2>=2.000
     88A -> 94A       -0.10010
     89A -> 93A        0.19443
     90A -> 94A       -0.43563
     91A -> 95A       -0.24865
     92A -> 96A       -0.40402
     88B -> 94B        0.10010
     89B -> 93B       -0.19443
     90B -> 94B        0.43563
     91B -> 95B        0.24865
     92B -> 96B        0.40402

 Excited State  11:  3.000-A1     3.7559 eV  330.11 nm  f=0.0000  <S**2>=2.000
     86A -> 94A        0.13463
     88A -> 94A        0.26508
     89A -> 93A       -0.20264
     89A -> 95A       -0.14501
     90A -> 94A        0.19728
     90A -> 96A       -0.12001
     91A -> 95A       -0.33319
     91A -> 97A        0.32300
     92A -> 96A       -0.12763
     86B -> 94B       -0.13463
     88B -> 94B       -0.26508
     89B -> 93B        0.20264
     89B -> 95B        0.14501
     90B -> 94B       -0.19728
     90B -> 96B        0.12001
     91B -> 95B        0.33319
     91B -> 97B       -0.32300
     92B -> 96B        0.12763

 Excited State  12:  1.000-A1     3.8085 eV  325.54 nm  f=1.0117  <S**2>=0.000
     90A -> 94A       -0.16066
     91A -> 93A       -0.42530
     91A -> 97A        0.11426
     92A -> 94A        0.51841
     90B -> 94B       -0.16066
     91B -> 93B       -0.42530
     91B -> 97B        0.11426
     92B -> 94B        0.51841

 Excited State  13:  3.000-B2     3.8924 eV  318.53 nm  f=0.0000  <S**2>=2.000
     82A -> 93A        0.22077
     86A -> 93A       -0.20300
     87A -> 94A        0.10267
     88A -> 95A        0.12113
     88A -> 97A        0.14463
     89A -> 94A       -0.22859
     90A -> 97A       -0.15253
     91A -> 94A        0.12510
     91A -> 96A        0.26297
     92A -> 98A        0.29495
     92A ->100A        0.14339
     82B -> 93B       -0.22077
     86B -> 93B        0.20300
     87B -> 94B       -0.10267
     88B -> 95B       -0.12113
     88B -> 97B       -0.14463
     89B -> 94B        0.22859
     90B -> 97B        0.15253
     91B -> 94B       -0.12510
     91B -> 96B       -0.26297
     92B -> 98B       -0.29495
     92B ->100B       -0.14339

 Excited State  14:  1.000-A1     3.8930 eV  318.48 nm  f=0.0133  <S**2>=0.000
     89A -> 93A       -0.34331
     90A -> 94A        0.31375
     91A -> 95A        0.36794
     92A -> 96A        0.33364
     89B -> 93B       -0.34331
     90B -> 94B        0.31375
     91B -> 95B        0.36794
     92B -> 96B        0.33364

 Excited State  15:  1.000-B2     3.9635 eV  312.82 nm  f=0.1111  <S**2>=0.000
     90A -> 93A        0.33302
     90A -> 95A       -0.16680
     91A -> 94A        0.52648
     92A -> 95A        0.24250
     90B -> 93B        0.33302
     90B -> 95B       -0.16680
     91B -> 94B        0.52648
     92B -> 95B        0.24250

 Excited State  16:  3.000-B2     4.0081 eV  309.33 nm  f=0.0000  <S**2>=2.000
     82A -> 93A        0.20730
     89A -> 94A        0.28086
     91A -> 94A       -0.15098
     91A -> 96A       -0.36628
     91A -> 99A        0.12336
     92A -> 98A        0.21018
     92A ->100A        0.16418
     82B -> 93B       -0.20730
     89B -> 94B       -0.28086
     91B -> 94B        0.15098
     91B -> 96B        0.36628
     91B -> 99B       -0.12336
     92B -> 98B       -0.21018
     92B ->100B       -0.16418

 Excited State  17:  1.000-B2     4.2000 eV  295.20 nm  f=0.0719  <S**2>=0.000
     88A -> 93A       -0.17616
     90A -> 93A        0.52274
     90A -> 97A       -0.10183
     91A -> 94A       -0.35219
     92A -> 97A        0.17000
     88B -> 93B       -0.17616
     90B -> 93B        0.52274
     90B -> 97B       -0.10183
     91B -> 94B       -0.35219
     92B -> 97B        0.17000

 Excited State  18:  3.000-B2     4.2310 eV  293.04 nm  f=0.0000  <S**2>=2.000
     87A -> 94A       -0.11206
     88A -> 95A        0.10374
     90A -> 93A       -0.44639
     90A -> 97A        0.22248
     92A -> 95A        0.37411
     92A ->100A        0.13251
     87B -> 94B        0.11206
     88B -> 95B       -0.10374
     90B -> 93B        0.44639
     90B -> 97B       -0.22248
     92B -> 95B       -0.37411
     92B ->100B       -0.13251

 Excited State  19:  1.000-B2     4.3719 eV  283.59 nm  f=0.0246  <S**2>=0.000
     88A -> 93A       -0.10097
     88A -> 95A        0.14666
     90A -> 93A       -0.19073
     90A -> 97A        0.13115
     91A -> 94A       -0.15147
     91A -> 96A        0.12370
     92A -> 95A        0.56867
     92A -> 97A        0.17624
     88B -> 93B       -0.10097
     88B -> 95B        0.14666
     90B -> 93B       -0.19073
     90B -> 97B        0.13115
     91B -> 94B       -0.15147
     91B -> 96B        0.12370
     92B -> 95B        0.56867
     92B -> 97B        0.17624

 Excited State  20:  3.000-A1     4.3811 eV  283.00 nm  f=0.0000  <S**2>=2.000
     87A -> 95A       -0.16809
     88A -> 94A       -0.25774
     89A -> 93A       -0.31118
     90A -> 96A        0.23719
     91A -> 93A       -0.24921
     91A -> 95A       -0.22840
     91A -> 97A        0.11844
     92A -> 96A        0.11198
     92A -> 99A        0.20353
     87B -> 95B        0.16809
     88B -> 94B        0.25774
     89B -> 93B        0.31118
     90B -> 96B       -0.23719
     91B -> 93B        0.24921
     91B -> 95B        0.22840
     91B -> 97B       -0.11844
     92B -> 96B       -0.11198
     92B -> 99B       -0.20353

 The electronic state is 1-A1.
 Alpha  occ. eigenvalues --  -10.00777 -10.00757 -10.00644 -10.00640 -10.00444
 Alpha  occ. eigenvalues --  -10.00422 -10.00306 -10.00287 -10.00246 -10.00234
 Alpha  occ. eigenvalues --  -10.00231 -10.00224  -9.99417  -9.99413  -9.99326
 Alpha  occ. eigenvalues --   -9.99325  -9.99323  -9.99319  -9.99312  -9.99267
 Alpha  occ. eigenvalues --   -9.99257  -9.99244  -9.99241  -9.99239  -9.99198
 Alpha  occ. eigenvalues --   -9.99198  -9.99159  -9.99158  -0.92568  -0.91133
 Alpha  occ. eigenvalues --   -0.88683  -0.88446  -0.85623  -0.83362  -0.82315
 Alpha  occ. eigenvalues --   -0.81374  -0.80711  -0.78135  -0.77705  -0.76589
 Alpha  occ. eigenvalues --   -0.74954  -0.73456  -0.70071  -0.67195  -0.66916
 Alpha  occ. eigenvalues --   -0.66855  -0.65540  -0.64594  -0.62427  -0.62158
 Alpha  occ. eigenvalues --   -0.58727  -0.58661  -0.56572  -0.56507  -0.55692
 Alpha  occ. eigenvalues --   -0.53626  -0.52660  -0.52637  -0.50970  -0.50030
 Alpha  occ. eigenvalues --   -0.49632  -0.49329  -0.48449  -0.48221  -0.47432
 Alpha  occ. eigenvalues --   -0.47367  -0.46465  -0.46397  -0.46346  -0.45502
 Alpha  occ. eigenvalues --   -0.44740  -0.43850  -0.43521  -0.43438  -0.43212
 Alpha  occ. eigenvalues --   -0.41766  -0.41323  -0.40415  -0.39875  -0.39583
 Alpha  occ. eigenvalues --   -0.38225  -0.37089  -0.36994  -0.36914  -0.36824
 Alpha  occ. eigenvalues --   -0.34876  -0.34752  -0.31752  -0.30779  -0.29429
 Alpha  occ. eigenvalues --   -0.26590  -0.24969
 Alpha virt. eigenvalues --   -0.03746  -0.01530   0.01116   0.02156   0.02815
 Alpha virt. eigenvalues --    0.06367   0.06636   0.07946   0.09781   0.09851
 Alpha virt. eigenvalues --    0.10336   0.10701   0.11521   0.11602   0.13116

  Beta  occ. eigenvalues --  -10.00777 -10.00757 -10.00644 -10.00640 -10.00444
  Beta  occ. eigenvalues --  -10.00422 -10.00306 -10.00287 -10.00246 -10.00234
  Beta  occ. eigenvalues --  -10.00231 -10.00224  -9.99417  -9.99413  -9.99326
  Beta  occ. eigenvalues --   -9.99325  -9.99323  -9.99319  -9.99312  -9.99267
  Beta  occ. eigenvalues --   -9.99257  -9.99244  -9.99241  -9.99239  -9.99198
  Beta  occ. eigenvalues --   -9.99198  -9.99159  -9.99158  -0.92568  -0.91133
  Beta  occ. eigenvalues --   -0.88683  -0.88446  -0.85623  -0.83362  -0.82315
  Beta  occ. eigenvalues --   -0.81374  -0.80711  -0.78135  -0.77705  -0.76589
  Beta  occ. eigenvalues --   -0.74954  -0.73456  -0.70071  -0.67195  -0.66916
  Beta  occ. eigenvalues --   -0.66855  -0.65540  -0.64594  -0.62427  -0.62158
  Beta  occ. eigenvalues --   -0.58727  -0.58661  -0.56572  -0.56507  -0.55692
  Beta  occ. eigenvalues --   -0.53626  -0.52660  -0.52637  -0.50970  -0.50030
  Beta  occ. eigenvalues --   -0.49632  -0.49329  -0.48449  -0.48221  -0.47432
  Beta  occ. eigenvalues --   -0.47367  -0.46465  -0.46397  -0.46346  -0.45502
  Beta  occ. eigenvalues --   -0.44740  -0.43850  -0.43521  -0.43438  -0.43212
  Beta  occ. eigenvalues --   -0.41766  -0.41323  -0.40415  -0.39875  -0.39583
  Beta  occ. eigenvalues --   -0.38225  -0.37089  -0.36994  -0.36914  -0.36824
  Beta  occ. eigenvalues --   -0.34876  -0.34752  -0.31752  -0.30779  -0.29429
  Beta  occ. eigenvalues --   -0.26590  -0.24969
  Beta virt. eigenvalues --   -0.03746  -0.01530   0.01116   0.02156   0.02815
  Beta virt. eigenvalues --    0.06367   0.06636   0.07946   0.09781   0.09851
  Beta virt. eigenvalues --    0.10336   0.10701   0.11521   0.11602   0.13116

 Mulliken charges and spin densities:
               1          2
     1  C   -0.103016   0.000000
     2  C   -0.171942  -0.000000
     3  C    0.062435   0.000000
     4  C   -0.012149  -0.000000
     5  C    0.191615   0.000000
     6  C   -0.189707  -0.000000
     7  C    0.214334   0.000000
     8  C   -0.012149  -0.000000
     9  C    0.062435   0.000000
    10  C    0.214334   0.000000
    11  C   -0.171942  -0.000000
    12  H    0.078715   0.000000
    13  C   -0.103016   0.000000
    14  C   -0.189707  -0.000000
    15  C    0.191615   0.000000
    16  C   -0.207211   0.000000
    17  C   -0.207211   0.000000
    18  H    0.096208   0.000000
    19  H    0.096208   0.000000
    20  H    0.104046   0.000000
    21  H    0.078715   0.000000
    22  H    0.100445   0.000000
    23  H    0.104046   0.000000
    24  H    0.100445   0.000000
    25  C   -0.361692  -0.000000
    26  C    0.272779  -0.000000
    27  C    0.272779  -0.000000
    28  C   -0.361692  -0.000000
    29  H    0.078217  -0.000000
    30  H    0.078217  -0.000000
    31  C   -0.360478   0.000000
    32  C    0.235129  -0.000000
    33  C    0.235129  -0.000000
    34  C   -0.360478   0.000000
    35  H    0.089176   0.000000
    36  H    0.089176   0.000000
    37  C   -0.236364   0.000000
    38  C   -0.087127  -0.000000
    39  C   -0.087127  -0.000000
    40  C   -0.236364   0.000000
    41  H    0.099220  -0.000000
    42  H    0.107368  -0.000000
    43  H    0.107368  -0.000000
    44  H    0.099220  -0.000000
 Sum of Mulliken charges =  -0.00000  -0.00000

 Dipole moment (field-independent basis, Debye):
    X=              0.0000    Y=              0.0000    Z=              0.0485  Tot=              0.0485
 Quadrupole moment (field-independent basis, Debye-Ang):
   XX=           -170.1732   YY=           -138.6816   ZZ=           -137.8794
   XY=              0.0000   XZ=              0.0000   YZ=              0.0000

 Normal termination of Gaussian 16 at Tue Jan 21 00:40:27 2020.
