 Gaussian 16, Revision A.03,
 Gaussian 16:  EM64L-G16RevA.03 25-Dec-2016

 ----------------------------------------------------------------------
 #P uLC-wHPBE/def2tzvp iop(3/107=0169000000, 3/108=0169000000) td(NStat
 es=20)
 ----------------------------------------------------------------------

 -------
 H18 C32
 -------
 Symbolic Z-matrix:
 Charge =  0 Multiplicity = 1

                         Standard orientation:
 ---------------------------------------------------------------------
 Center     Atomic      Atomic             Coordinates (Angstroms)
 Number     Number       Type             X           Y           Z
 ---------------------------------------------------------------------
      1          6           0        0.000000    3.528330   -4.093330
      2          6           0        0.000000    2.847060   -2.874793
      3          6           0        0.000000    1.452430   -2.813041
      4          6           0        0.000000    0.721016   -4.031613
      5          6           0        0.000000    1.418801   -5.272570
      6          6           0        0.000000    2.824190   -5.282468
      7          6           0        0.000000    0.724762   -1.529966
      8          6           0       -0.000000   -0.721016   -4.031613
      9          6           0       -0.000000   -1.452430   -2.813041
     10          6           0       -0.000000   -0.724762   -1.529966
     11          6           0       -0.000000   -2.847060   -2.874793
     12          1           0        0.000000   -3.435430   -1.959325
     13          6           0       -0.000000   -3.528330   -4.093330
     14          6           0       -0.000000   -2.824190   -5.282468
     15          6           0       -0.000000   -1.418801   -5.272570
     16          6           0        0.000000   -0.677765   -6.501668
     17          6           0        0.000000    0.677765   -6.501668
     18          1           0        0.000000    1.235090   -7.440028
     19          1           0       -0.000000   -1.235090   -7.440028
     20          1           0        0.000000    4.618757   -4.100168
     21          1           0        0.000000    3.435430   -1.959325
     22          1           0        0.000000    3.347416   -6.240078
     23          1           0       -0.000000   -4.618757   -4.100168
     24          1           0       -0.000000   -3.347416   -6.240078
     25          6           0        0.000000    1.390017   -0.324039
     26          6           0        0.000000    0.720377    0.929653
     27          6           0       -0.000000   -0.720377    0.929653
     28          6           0       -0.000000   -1.390017   -0.324039
     29          1           0        0.000000    2.478856   -0.296090
     30          1           0       -0.000000   -2.478856   -0.296090
     31          6           0        0.000000    1.405250    2.143991
     32          6           0        0.000000    0.723963    3.374791
     33          6           0       -0.000000   -0.723963    3.374791
     34          6           0       -0.000000   -1.405250    2.143991
     35          1           0        0.000000    2.497635    2.142951
     36          1           0       -0.000000   -2.497635    2.142951
     37          6           0        0.000000    1.404124    4.610721
     38          6           0        0.000000    0.723366    5.822284
     39          6           0       -0.000000   -0.723366    5.822284
     40          6           0       -0.000000   -1.404124    4.610721
     41          1           0        0.000000    2.496541    4.611534
     42          1           0       -0.000000   -2.496541    4.611534
     43          6           0        0.000000    1.407191    7.082736
     44          6           0        0.000000    0.714497    8.257987
     45          6           0       -0.000000   -0.714497    8.257987
     46          6           0       -0.000000   -1.407191    7.082736
     47          1           0        0.000000    2.498673    7.080641
     48          1           0        0.000000    1.249060    9.208513
     49          1           0       -0.000000   -1.249060    9.208513
     50          1           0       -0.000000   -2.498673    7.080641
 ---------------------------------------------------------------------

 SCF Done:  E(ULC-wHPBE) =  -1229.52782397     A.U. after   15 cycles

 Excitation energies and oscillator strengths:

 Excited State   1:  3.000-B2     0.9959 eV 1244.91 nm  f=0.0000  <S**2>=2.000
    103A -> 108A       0.12309
    105A -> 106A       0.69714
    103B -> 108B      -0.12309
    105B -> 106B      -0.69714
    105A <- 106A       0.19825
    105B <- 106B      -0.19825
 This state for optimization and/or second-order correction.
 Total Energy, E(TD-HF/TD-DFT) =  -1229.49122435
 Copying the excited state density for this state as the 1-particle RhoCI density.

 Excited State   2:  3.000-B2     2.1984 eV  563.98 nm  f=0.0000  <S**2>=2.000
    101A -> 106A      -0.21805
    103A -> 106A       0.42212
    104A -> 107A       0.21705
    105A -> 108A       0.38371
    105A -> 109A      -0.19386
    101B -> 106B       0.21805
    103B -> 106B      -0.42212
    104B -> 107B      -0.21705
    105B -> 108B      -0.38371
    105B -> 109B       0.19386

 Excited State   3:  1.000-B2     2.3267 eV  532.88 nm  f=0.0327  <S**2>=0.000
    105A -> 106A       0.70446
    105B -> 106B       0.70446

 Excited State   4:  3.000-A1     2.6418 eV  469.32 nm  f=0.0000  <S**2>=2.000
    102A -> 106A      -0.17417
    103A -> 107A       0.13847
    104A -> 106A       0.51307
    104A -> 108A      -0.20041
    105A -> 107A      -0.29692
    102B -> 106B       0.17417
    103B -> 107B      -0.13847
    104B -> 106B      -0.51307
    104B -> 108B       0.20041
    105B -> 107B       0.29692

 Excited State   5:  3.000-B2     2.6574 eV  466.56 nm  f=0.0000  <S**2>=2.000
    100A -> 106A      -0.12302
    101A -> 106A       0.14222
    102A -> 107A       0.14199
    103A -> 108A      -0.14994
    104A -> 107A       0.55247
    104A -> 110A      -0.15125
    105A -> 109A       0.11910
    105A -> 111A       0.12252
    100B -> 106B       0.12302
    101B -> 106B      -0.14222
    102B -> 107B      -0.14199
    103B -> 108B       0.14994
    104B -> 107B      -0.55247
    104B -> 110B       0.15125
    105B -> 109B      -0.11910
    105B -> 111B      -0.12252

 Excited State   6:  3.000-A1     2.9921 eV  414.37 nm  f=0.0000  <S**2>=2.000
    102A -> 106A       0.23636
    103A -> 107A       0.17007
    104A -> 106A      -0.28611
    105A -> 107A      -0.48036
    105A -> 110A      -0.26812
    102B -> 106B      -0.23636
    103B -> 107B      -0.17007
    104B -> 106B       0.28611
    105B -> 107B       0.48036
    105B -> 110B       0.26812

 Excited State   7:  1.000-A1     3.0978 eV  400.23 nm  f=0.0350  <S**2>=0.000
    102A -> 106A      -0.21904
    103A -> 107A      -0.10645
    104A -> 106A       0.49442
    104A -> 108A      -0.13728
    105A -> 107A       0.34638
    105A -> 110A       0.19941
    102B -> 106B      -0.21904
    103B -> 107B      -0.10645
    104B -> 106B       0.49442
    104B -> 108B      -0.13728
    105B -> 107B       0.34638
    105B -> 110B       0.19941

 Excited State   8:  3.000-B2     3.2317 eV  383.65 nm  f=0.0000  <S**2>=2.000
     98A -> 106A      -0.12681
    100A -> 106A      -0.30256
    101A -> 106A       0.19124
    103A -> 106A       0.15336
    103A -> 108A      -0.29962
    104A -> 107A      -0.18224
    105A -> 108A       0.10870
    105A -> 111A       0.31779
    105A -> 114A       0.12139
     98B -> 106B       0.12681
    100B -> 106B       0.30256
    101B -> 106B      -0.19124
    103B -> 106B      -0.15336
    103B -> 108B       0.29962
    104B -> 107B       0.18224
    105B -> 108B      -0.10870
    105B -> 111B      -0.31779
    105B -> 114B      -0.12139

 Excited State   9:  3.000-A1     3.3452 eV  370.64 nm  f=0.0000  <S**2>=2.000
     99A -> 106A       0.14684
    102A -> 106A       0.46356
    103A -> 107A       0.13963
    104A -> 108A      -0.28514
    105A -> 110A       0.29818
    105A -> 112A      -0.12698
     99B -> 106B      -0.14684
    102B -> 106B      -0.46356
    103B -> 107B      -0.13963
    104B -> 108B       0.28514
    105B -> 110B      -0.29818
    105B -> 112B       0.12698

 Excited State  10:  1.000-B2     3.4805 eV  356.22 nm  f=0.0064  <S**2>=0.000
    101A -> 106A      -0.14307
    103A -> 106A       0.56833
    105A -> 108A       0.35365
    105A -> 109A      -0.11000
    101B -> 106B      -0.14307
    103B -> 106B       0.56833
    105B -> 108B       0.35365
    105B -> 109B      -0.11000

 Excited State  11:  3.000-A1     3.5323 eV  351.00 nm  f=0.0000  <S**2>=2.000
    101A -> 107A       0.18251
    102A -> 106A      -0.22225
    103A -> 107A       0.36847
    104A -> 106A      -0.10708
    104A -> 108A       0.20450
    104A -> 109A       0.13844
    105A -> 107A      -0.12319
    105A -> 110A       0.39746
    101B -> 107B      -0.18251
    102B -> 106B       0.22225
    103B -> 107B      -0.36847
    104B -> 106B       0.10708
    104B -> 108B      -0.20450
    104B -> 109B      -0.13844
    105B -> 107B       0.12319
    105B -> 110B      -0.39746

 Excited State  12:  3.000-B2     3.5718 eV  347.12 nm  f=0.0000  <S**2>=2.000
     98A -> 106A      -0.17183
    100A -> 106A      -0.14450
    101A -> 106A      -0.19920
    101A -> 108A       0.27504
    103A -> 106A      -0.15824
    103A -> 108A       0.18594
    103A -> 109A       0.28706
    104A -> 107A       0.13152
    105A -> 109A      -0.27559
    105A -> 111A       0.13689
    105A -> 113A      -0.11827
    105A -> 114A       0.10335
     98B -> 106B       0.17183
    100B -> 106B       0.14450
    101B -> 106B       0.19920
    101B -> 108B      -0.27504
    103B -> 106B       0.15824
    103B -> 108B      -0.18594
    103B -> 109B      -0.28706
    104B -> 107B      -0.13152
    105B -> 109B       0.27559
    105B -> 111B      -0.13689
    105B -> 113B       0.11827
    105B -> 114B      -0.10335

 Excited State  13:  1.000-A1     3.5777 eV  346.55 nm  f=1.2766  <S**2>=0.000
    103A -> 107A      -0.12642
    104A -> 106A      -0.42534
    104A -> 108A       0.14948
    105A -> 107A       0.49234
    105A -> 110A       0.12992
    103B -> 107B      -0.12642
    104B -> 106B      -0.42534
    104B -> 108B       0.14948
    105B -> 107B       0.49234
    105B -> 110B       0.12992

 Excited State  14:  1.000-A1     3.6885 eV  336.13 nm  f=0.0527  <S**2>=0.000
    101A -> 107A      -0.11620
    102A -> 106A       0.37263
    103A -> 107A      -0.30112
    104A -> 108A      -0.25205
    104A -> 109A      -0.14688
    105A -> 107A       0.18531
    105A -> 110A      -0.32847
    101B -> 107B      -0.11620
    102B -> 106B       0.37263
    103B -> 107B      -0.30112
    104B -> 108B      -0.25205
    104B -> 109B      -0.14688
    105B -> 107B       0.18531
    105B -> 110B      -0.32847

 Excited State  15:  3.000-A1     3.6981 eV  335.27 nm  f=0.0000  <S**2>=2.000
     99A -> 106A       0.10381
    100A -> 107A      -0.11353
    101A -> 107A      -0.29672
    102A -> 108A       0.12544
    103A -> 107A      -0.15816
    104A -> 108A       0.21780
    104A -> 109A       0.47790
     99B -> 106B      -0.10381
    100B -> 107B       0.11353
    101B -> 107B       0.29672
    102B -> 108B      -0.12544
    103B -> 107B       0.15816
    104B -> 108B      -0.21780
    104B -> 109B      -0.47790

 Excited State  16:  3.000-B2     3.7155 eV  333.69 nm  f=0.0000  <S**2>=2.000
    101A -> 106A       0.14294
    103A -> 106A      -0.42572
    103A -> 109A      -0.10923
    105A -> 108A       0.47786
    105A -> 109A      -0.13227
    101B -> 106B      -0.14294
    103B -> 106B       0.42572
    103B -> 109B       0.10923
    105B -> 108B      -0.47786
    105B -> 109B       0.13227

 Excited State  17:  1.000-B2     3.7761 eV  328.34 nm  f=0.0028  <S**2>=0.000
    101A -> 106A       0.11256
    103A -> 106A      -0.34078
    105A -> 108A       0.54187
    105A -> 109A      -0.17615
    101B -> 106B       0.11256
    103B -> 106B      -0.34078
    105B -> 108B       0.54187
    105B -> 109B      -0.17615

 Excited State  18:  3.000-B2     3.8791 eV  319.62 nm  f=0.0000  <S**2>=2.000
     94A -> 106A       0.29364
     98A -> 106A       0.18927
     98A -> 108A       0.12764
    100A -> 108A       0.14220
    100A -> 111A      -0.10612
    101A -> 111A       0.12502
    103A -> 111A      -0.16251
    103A -> 113A       0.15157
    105A -> 109A      -0.11362
    105A -> 113A       0.39472
    105A -> 114A       0.15287
     94B -> 106B      -0.29364
     98B -> 106B      -0.18927
     98B -> 108B      -0.12764
    100B -> 108B      -0.14220
    100B -> 111B       0.10612
    101B -> 111B      -0.12502
    103B -> 111B       0.16251
    103B -> 113B      -0.15157
    105B -> 109B       0.11362
    105B -> 113B      -0.39472
    105B -> 114B      -0.15287

 Excited State  19:  1.000-B2     3.9772 eV  311.73 nm  f=0.0893  <S**2>=0.000
    101A -> 106A       0.21295
    103A -> 108A      -0.18617
    104A -> 107A       0.57578
    105A -> 109A       0.20889
    101B -> 106B       0.21295
    103B -> 108B      -0.18617
    104B -> 107B       0.57578
    105B -> 109B       0.20889

 Excited State  20:  3.000-B2     4.0084 eV  309.31 nm  f=0.0000  <S**2>=2.000
     99A -> 107A       0.17298
    101A -> 106A      -0.11501
    102A -> 107A      -0.30362
    102A -> 112A       0.10340
    104A -> 107A       0.17959
    104A -> 110A       0.40907
    104A -> 112A       0.22058
    105A -> 109A       0.11365
     99B -> 107B      -0.17298
    101B -> 106B       0.11501
    102B -> 107B       0.30362
    102B -> 112B      -0.10340
    104B -> 107B      -0.17959
    104B -> 110B      -0.40907
    104B -> 112B      -0.22058
    105B -> 109B      -0.11365

 The electronic state is 1-A1.
 Alpha  occ. eigenvalues --  -10.00271 -10.00252 -10.00120 -10.00116  -9.99925
 Alpha  occ. eigenvalues --   -9.99903  -9.99880  -9.99862  -9.99770  -9.99763
 Alpha  occ. eigenvalues --   -9.99752  -9.99743  -9.99707  -9.99704  -9.98935
 Alpha  occ. eigenvalues --   -9.98932  -9.98867  -9.98863  -9.98805  -9.98802
 Alpha  occ. eigenvalues --   -9.98787  -9.98786  -9.98777  -9.98730  -9.98723
 Alpha  occ. eigenvalues --   -9.98713  -9.98711  -9.98709  -9.98673  -9.98673
 Alpha  occ. eigenvalues --   -9.98633  -9.98632  -0.91967  -0.90882  -0.89144
 Alpha  occ. eigenvalues --   -0.87854  -0.86722  -0.84105  -0.82452  -0.81975
 Alpha  occ. eigenvalues --   -0.80784  -0.80279  -0.78924  -0.77055  -0.76758
 Alpha  occ. eigenvalues --   -0.75418  -0.74470  -0.72154  -0.70305  -0.66671
 Alpha  occ. eigenvalues --   -0.66437  -0.66341  -0.66228  -0.64366  -0.63170
 Alpha  occ. eigenvalues --   -0.62411  -0.62077  -0.58600  -0.58246  -0.57416
 Alpha  occ. eigenvalues --   -0.56115  -0.55392  -0.54346  -0.53135  -0.52529
 Alpha  occ. eigenvalues --   -0.51900  -0.51035  -0.49797  -0.49426  -0.49399
 Alpha  occ. eigenvalues --   -0.48000  -0.47963  -0.47719  -0.47192  -0.46670
 Alpha  occ. eigenvalues --   -0.46486  -0.46422  -0.45970  -0.45677  -0.44704
 Alpha  occ. eigenvalues --   -0.44376  -0.44302  -0.43563  -0.42743  -0.42381
 Alpha  occ. eigenvalues --   -0.41424  -0.41369  -0.41241  -0.40874  -0.38992
 Alpha  occ. eigenvalues --   -0.38732  -0.38214  -0.37465  -0.37082  -0.36647
 Alpha  occ. eigenvalues --   -0.36446  -0.36144  -0.35352  -0.33661  -0.33070
 Alpha  occ. eigenvalues --   -0.30292  -0.30212  -0.28224  -0.26391  -0.23542
 Alpha virt. eigenvalues --   -0.05222  -0.01743  -0.00011   0.01488   0.01653
 Alpha virt. eigenvalues --    0.04547   0.05423   0.06658   0.07610   0.09045
 Alpha virt. eigenvalues --    0.09402   0.10046   0.10455   0.10786   0.11112

  Beta  occ. eigenvalues --  -10.00271 -10.00252 -10.00120 -10.00116  -9.99925
  Beta  occ. eigenvalues --   -9.99903  -9.99880  -9.99862  -9.99770  -9.99763
  Beta  occ. eigenvalues --   -9.99752  -9.99743  -9.99707  -9.99704  -9.98935
  Beta  occ. eigenvalues --   -9.98932  -9.98867  -9.98863  -9.98805  -9.98802
  Beta  occ. eigenvalues --   -9.98787  -9.98786  -9.98777  -9.98730  -9.98723
  Beta  occ. eigenvalues --   -9.98713  -9.98711  -9.98709  -9.98673  -9.98673
  Beta  occ. eigenvalues --   -9.98633  -9.98632  -0.91967  -0.90882  -0.89144
  Beta  occ. eigenvalues --   -0.87854  -0.86722  -0.84105  -0.82452  -0.81975
  Beta  occ. eigenvalues --   -0.80784  -0.80279  -0.78924  -0.77055  -0.76758
  Beta  occ. eigenvalues --   -0.75418  -0.74470  -0.72154  -0.70305  -0.66671
  Beta  occ. eigenvalues --   -0.66437  -0.66341  -0.66228  -0.64366  -0.63170
  Beta  occ. eigenvalues --   -0.62411  -0.62077  -0.58600  -0.58246  -0.57416
  Beta  occ. eigenvalues --   -0.56115  -0.55392  -0.54346  -0.53135  -0.52529
  Beta  occ. eigenvalues --   -0.51900  -0.51035  -0.49797  -0.49426  -0.49399
  Beta  occ. eigenvalues --   -0.48000  -0.47963  -0.47719  -0.47192  -0.46670
  Beta  occ. eigenvalues --   -0.46486  -0.46422  -0.45970  -0.45677  -0.44704
  Beta  occ. eigenvalues --   -0.44376  -0.44302  -0.43563  -0.42743  -0.42381
  Beta  occ. eigenvalues --   -0.41424  -0.41369  -0.41241  -0.40874  -0.38992
  Beta  occ. eigenvalues --   -0.38732  -0.38214  -0.37465  -0.37082  -0.36647
  Beta  occ. eigenvalues --   -0.36446  -0.36144  -0.35352  -0.33661  -0.33070
  Beta  occ. eigenvalues --   -0.30292  -0.30212  -0.28224  -0.26391  -0.23542
  Beta virt. eigenvalues --   -0.05222  -0.01743  -0.00011   0.01488   0.01653
  Beta virt. eigenvalues --    0.04547   0.05423   0.06658   0.07610   0.09045
  Beta virt. eigenvalues --    0.09402   0.10046   0.10455   0.10786   0.11112

 Mulliken charges and spin densities:
               1          2
     1  C   -0.102745   0.000000
     2  C   -0.170079  -0.000000
     3  C    0.060482   0.000000
     4  C   -0.013738  -0.000000
     5  C    0.192066   0.000000
     6  C   -0.188685  -0.000000
     7  C    0.215257   0.000000
     8  C   -0.013738  -0.000000
     9  C    0.060482   0.000000
    10  C    0.215257   0.000000
    11  C   -0.170079  -0.000000
    12  H    0.077999  -0.000000
    13  C   -0.102745   0.000000
    14  C   -0.188685  -0.000000
    15  C    0.192066   0.000000
    16  C   -0.206088  -0.000000
    17  C   -0.206088  -0.000000
    18  H    0.095320  -0.000000
    19  H    0.095320  -0.000000
    20  H    0.103296  -0.000000
    21  H    0.077999  -0.000000
    22  H    0.099642  -0.000000
    23  H    0.103296  -0.000000
    24  H    0.099642  -0.000000
    25  C   -0.367566  -0.000000
    26  C    0.292743   0.000000
    27  C    0.292743   0.000000
    28  C   -0.367566  -0.000000
    29  H    0.077014  -0.000000
    30  H    0.077014  -0.000000
    31  C   -0.392255  -0.000000
    32  C    0.287105  -0.000000
    33  C    0.287105  -0.000000
    34  C   -0.392255  -0.000000
    35  H    0.087843  -0.000000
    36  H    0.087843  -0.000000
    37  C   -0.358854   0.000000
    38  C    0.235282  -0.000000
    39  C    0.235282  -0.000000
    40  C   -0.358854   0.000000
    41  H    0.088860   0.000000
    42  H    0.088860   0.000000
    43  C   -0.231403  -0.000000
    44  C   -0.086835   0.000000
    45  C   -0.086835   0.000000
    46  C   -0.231403  -0.000000
    47  H    0.098507  -0.000000
    48  H    0.106837  -0.000000
    49  H    0.106837  -0.000000
    50  H    0.098507  -0.000000
 Sum of Mulliken charges =  -0.00000  -0.00000

 Dipole moment (field-independent basis, Debye):
    X=              0.0000    Y=              0.0000    Z=              0.0411  Tot=              0.0411
 Quadrupole moment (field-independent basis, Debye-Ang):
   XX=           -194.1942   YY=           -158.4669   ZZ=           -157.0937
   XY=              0.0000   XZ=              0.0000   YZ=             -0.0000

 Normal termination of Gaussian 16 at Tue Jan 21 01:09:12 2020.
