 Gaussian 16, Revision A.03,
 Gaussian 16:  EM64L-G16RevA.03 25-Dec-2016

 ----------------------------------------------------------------------
 #P uLC-wHPBE/def2tzvp iop(3/107=0161000000, 3/108=0161000000) td(nstat
 es=20)
 ----------------------------------------------------------------------

 -------
 H20 C36
 -------
 Symbolic Z-matrix:
 Charge =  0 Multiplicity = 1

                         Standard orientation:
 ---------------------------------------------------------------------
 Center     Atomic      Atomic             Coordinates (Angstroms)
 Number     Number       Type             X           Y           Z
 ---------------------------------------------------------------------
      1          6           0        0.000000    3.529252   -5.226204
      2          6           0        0.000000    2.847992   -4.007334
      3          6           0        0.000000    1.453012   -3.945056
      4          6           0        0.000000    0.721066   -5.163800
      5          6           0        0.000000    1.418993   -6.405345
      6          6           0        0.000000    2.824824   -6.415414
      7          6           0        0.000000    0.726073   -2.661671
      8          6           0       -0.000000   -0.721066   -5.163800
      9          6           0       -0.000000   -1.453012   -3.945056
     10          6           0       -0.000000   -0.726073   -2.661671
     11          6           0       -0.000000   -2.847992   -4.007334
     12          1           0        0.000000   -3.436577   -3.091850
     13          6           0       -0.000000   -3.529252   -5.226204
     14          6           0       -0.000000   -2.824824   -6.415414
     15          6           0       -0.000000   -1.418993   -6.405345
     16          6           0        0.000000   -0.678068   -7.634202
     17          6           0        0.000000    0.678068   -7.634202
     18          1           0        0.000000    4.619780   -5.233145
     19          1           0        0.000000    3.436577   -3.091850
     20          1           0        0.000000    3.347870   -7.373243
     21          1           0       -0.000000   -4.619780   -5.233145
     22          1           0       -0.000000   -3.347870   -7.373243
     23          6           0        0.000000    1.391198   -1.456686
     24          6           0        0.000000    0.722186   -0.200570
     25          6           0       -0.000000   -0.722186   -0.200570
     26          6           0       -0.000000   -1.391198   -1.456686
     27          1           0        0.000000    2.480171   -1.428937
     28          1           0       -0.000000   -2.480171   -1.428937
     29          6           0        0.000000    1.407016    1.009849
     30          6           0        0.000000    0.726417    2.246886
     31          6           0       -0.000000   -0.726417    2.246886
     32          6           0       -0.000000   -1.407016    1.009849
     33          1           0        0.000000    2.499479    1.008359
     34          1           0       -0.000000   -2.499479    1.008359
     35          6           0        0.000000    1.406374    3.473726
     36          6           0        0.000000    0.725850    4.697432
     37          6           0       -0.000000   -0.725850    4.697432
     38          6           0       -0.000000   -1.406374    3.473726
     39          1           0        0.000000    2.498767    3.474019
     40          1           0       -0.000000   -2.498767    3.474019
     41          6           0        0.000000    1.405798    5.938252
     42          6           0        0.000000    0.725086    7.146768
     43          6           0       -0.000000   -0.725086    7.146768
     44          6           0       -0.000000   -1.405798    5.938252
     45          1           0        0.000000    2.499954    8.407365
     46          1           0        0.000000    2.498305    5.939244
     47          6           0        0.000000    1.408370    8.409181
     48          6           0       -0.000000   -1.408370    8.409181
     49          1           0       -0.000000   -2.498305    5.939244
     50          6           0        0.000000   -0.715363    9.583582
     51          6           0        0.000000    0.715363    9.583582
     52          1           0       -0.000000   -2.499954    8.407365
     53          1           0        0.000000   -1.249426   10.534507
     54          1           0        0.000000    1.249426   10.534507
     55          1           0        0.000000   -1.235400   -8.572687
     56          1           0        0.000000    1.235400   -8.572687
 ---------------------------------------------------------------------

 SCF Done:  E(ULC-wHPBE) =  -1383.04798664     A.U. after   15 cycles

 Excitation energies and oscillator strengths:

 Excited State   1:  3.000-B2     0.5375 eV 2306.61 nm  f=0.0000  <S**2>=2.000
    116A -> 121A       0.16646
    118A -> 119A       0.74509
    116B -> 121B      -0.16646
    118B -> 119B      -0.74509
    118A <- 119A       0.32737
    118B <- 119B      -0.32737
 This state for optimization and/or second-order correction.
 Total Energy, E(TD-HF/TD-DFT) =  -1383.02823330
 Copying the excited state density for this state as the 1-particle RhoCI density.

 Excited State   2:  3.000-B2     1.7105 eV  724.85 nm  f=0.0000  <S**2>=2.000
    115A -> 119A      -0.14646
    116A -> 119A       0.47780
    118A -> 121A       0.44051
    118A -> 122A      -0.11528
    115B -> 119B       0.14646
    116B -> 119B      -0.47780
    118B -> 121B      -0.44051
    118B -> 122B       0.11528

 Excited State   3:  1.000-B2     1.8952 eV  654.22 nm  f=0.0334  <S**2>=0.000
    118A -> 119A       0.70760
    118B -> 119B       0.70760

 Excited State   4:  3.000-B2     2.5092 eV  494.12 nm  f=0.0000  <S**2>=2.000
    113A -> 119A       0.23473
    115A -> 119A       0.19765
    115A -> 122A       0.10614
    116A -> 121A       0.27779
    117A -> 120A      -0.43959
    117A -> 123A       0.10419
    118A -> 122A       0.11554
    118A -> 124A       0.23955
    113B -> 119B      -0.23473
    115B -> 119B      -0.19765
    115B -> 122B      -0.10614
    116B -> 121B      -0.27779
    117B -> 120B       0.43959
    117B -> 123B      -0.10419
    118B -> 122B      -0.11554
    118B -> 124B      -0.23955

 Excited State   5:  3.000-A1     2.5413 eV  487.88 nm  f=0.0000  <S**2>=2.000
    114A -> 119A       0.18756
    116A -> 120A      -0.16022
    117A -> 119A       0.50386
    117A -> 121A       0.24329
    118A -> 120A      -0.26656
    114B -> 119B      -0.18756
    116B -> 120B       0.16022
    117B -> 119B      -0.50386
    117B -> 121B      -0.24329
    118B -> 120B       0.26656

 Excited State   6:  3.000-B2     2.7890 eV  444.55 nm  f=0.0000  <S**2>=2.000
    111A -> 119A      -0.11986
    113A -> 119A      -0.25299
    114A -> 120A       0.11646
    115A -> 119A      -0.12857
    115A -> 121A       0.10383
    116A -> 121A      -0.22244
    116A -> 122A       0.10285
    117A -> 120A      -0.41187
    117A -> 123A       0.12736
    118A -> 124A      -0.23496
    118A -> 126A       0.10354
    111B -> 119B       0.11986
    113B -> 119B       0.25299
    114B -> 120B      -0.11646
    115B -> 119B       0.12857
    115B -> 121B      -0.10383
    116B -> 121B       0.22244
    116B -> 122B      -0.10285
    117B -> 120B       0.41187
    117B -> 123B      -0.12736
    118B -> 124B       0.23496
    118B -> 126B      -0.10354

 Excited State   7:  3.000-A1     2.8546 eV  434.33 nm  f=0.0000  <S**2>=2.000
    114A -> 119A      -0.26922
    116A -> 120A      -0.18630
    117A -> 119A      -0.24958
    118A -> 120A      -0.45992
    118A -> 123A      -0.29142
    114B -> 119B       0.26922
    116B -> 120B       0.18630
    117B -> 119B       0.24958
    118B -> 120B       0.45992
    118B -> 123B       0.29142

 Excited State   8:  1.000-B2     2.9406 eV  421.63 nm  f=0.0027  <S**2>=0.000
    116A -> 119A       0.56907
    118A -> 121A       0.39641
    116B -> 119B       0.56907
    118B -> 121B       0.39641

 Excited State   9:  1.000-A1     2.9501 eV  420.27 nm  f=0.0552  <S**2>=0.000
    114A -> 119A       0.24673
    116A -> 120A       0.11235
    117A -> 119A       0.48170
    117A -> 121A       0.15475
    118A -> 120A       0.32253
    118A -> 123A       0.21573
    114B -> 119B       0.24673
    116B -> 120B       0.11235
    117B -> 119B       0.48170
    117B -> 121B       0.15475
    118B -> 120B       0.32253
    118B -> 123B       0.21573

 Excited State  10:  3.000-A1     3.1587 eV  392.51 nm  f=0.0000  <S**2>=2.000
    112A -> 119A      -0.15238
    114A -> 119A       0.46745
    116A -> 120A       0.10262
    117A -> 121A      -0.25229
    118A -> 123A      -0.30827
    118A -> 125A       0.11947
    112B -> 119B       0.15238
    114B -> 119B      -0.46745
    116B -> 120B      -0.10262
    117B -> 121B       0.25229
    118B -> 123B       0.30827
    118B -> 125B      -0.11947

 Excited State  11:  3.000-B2     3.2022 eV  387.19 nm  f=0.0000  <S**2>=2.000
    115A -> 121A       0.10364
    116A -> 119A       0.45127
    116A -> 124A      -0.10414
    118A -> 121A      -0.48425
    115B -> 121B      -0.10364
    116B -> 119B      -0.45127
    116B -> 124B       0.10414
    118B -> 121B       0.48425

 Excited State  12:  1.000-B2     3.2567 eV  380.70 nm  f=0.0005  <S**2>=0.000
    116A -> 119A      -0.37230
    116A -> 124A       0.10412
    118A -> 121A       0.55260
    116B -> 119B      -0.37230
    116B -> 124B       0.10412
    118B -> 121B       0.55260

 Excited State  13:  3.000-B2     3.3373 eV  371.51 nm  f=0.0000  <S**2>=2.000
    105A -> 119A      -0.10352
    109A -> 119A      -0.10100
    111A -> 119A       0.25564
    113A -> 119A       0.10357
    113A -> 121A      -0.13188
    115A -> 119A      -0.22347
    115A -> 121A      -0.24715
    116A -> 121A      -0.10511
    116A -> 122A      -0.20102
    116A -> 124A      -0.18855
    117A -> 120A      -0.16097
    118A -> 122A      -0.15537
    118A -> 126A      -0.27057
    105B -> 119B       0.10352
    109B -> 119B       0.10100
    111B -> 119B      -0.25564
    113B -> 119B      -0.10357
    113B -> 121B       0.13188
    115B -> 119B       0.22347
    115B -> 121B       0.24715
    116B -> 121B       0.10511
    116B -> 122B       0.20102
    116B -> 124B       0.18855
    117B -> 120B       0.16097
    118B -> 122B       0.15537
    118B -> 126B       0.27057

 Excited State  14:  3.000-A1     3.3784 eV  366.99 nm  f=0.0000  <S**2>=2.000
    114A -> 119A      -0.21573
    115A -> 120A       0.20912
    116A -> 120A       0.33028
    117A -> 119A       0.14723
    117A -> 121A       0.16331
    117A -> 122A       0.12867
    118A -> 120A       0.16336
    118A -> 123A      -0.40347
    118A -> 125A       0.12982
    114B -> 119B       0.21573
    115B -> 120B      -0.20912
    116B -> 120B      -0.33028
    117B -> 119B      -0.14723
    117B -> 121B      -0.16331
    117B -> 122B      -0.12867
    118B -> 120B      -0.16336
    118B -> 123B       0.40347
    118B -> 125B      -0.12982

 Excited State  15:  1.000-A1     3.4031 eV  364.33 nm  f=1.4145  <S**2>=0.000
    114A -> 119A       0.12660
    116A -> 120A       0.10842
    117A -> 119A      -0.42052
    117A -> 121A      -0.20427
    118A -> 120A       0.43929
    118A -> 123A       0.20638
    114B -> 119B       0.12660
    116B -> 120B       0.10842
    117B -> 119B      -0.42052
    117B -> 121B      -0.20427
    118B -> 120B       0.43929
    118B -> 123B       0.20638

 Excited State  16:  1.000-A1     3.5039 eV  353.84 nm  f=0.2620  <S**2>=0.000
    114A -> 119A       0.37819
    115A -> 120A      -0.13440
    116A -> 120A      -0.29313
    117A -> 121A      -0.17512
    117A -> 122A      -0.13708
    118A -> 120A      -0.29424
    118A -> 123A       0.28760
    114B -> 119B       0.37819
    115B -> 120B      -0.13440
    116B -> 120B      -0.29313
    117B -> 121B      -0.17512
    117B -> 122B      -0.13708
    118B -> 120B      -0.29424
    118B -> 123B       0.28760

 Excited State  17:  3.000-B2     3.5721 eV  347.09 nm  f=0.0000  <S**2>=2.000
    109A -> 119A       0.20116
    111A -> 119A      -0.14692
    113A -> 121A       0.19250
    115A -> 119A      -0.15957
    115A -> 121A      -0.13695
    115A -> 122A      -0.23349
    116A -> 122A      -0.22952
    116A -> 124A       0.16623
    118A -> 122A      -0.22797
    118A -> 124A       0.12537
    118A -> 126A       0.19801
    118A -> 128A       0.15119
    109B -> 119B      -0.20116
    111B -> 119B       0.14692
    113B -> 121B      -0.19250
    115B -> 119B       0.15957
    115B -> 121B       0.13695
    115B -> 122B       0.23349
    116B -> 122B       0.22952
    116B -> 124B      -0.16623
    118B -> 122B       0.22797
    118B -> 124B      -0.12537
    118B -> 126B      -0.19801
    118B -> 128B      -0.15119

 Excited State  18:  3.000-A1     3.6398 eV  340.63 nm  f=0.0000  <S**2>=2.000
    110A -> 119A       0.10188
    112A -> 119A       0.21075
    114A -> 121A       0.17720
    115A -> 120A       0.27976
    116A -> 123A      -0.11678
    117A -> 121A      -0.12221
    117A -> 122A      -0.48089
    118A -> 125A      -0.11793
    110B -> 119B      -0.10188
    112B -> 119B      -0.21075
    114B -> 121B      -0.17720
    115B -> 120B      -0.27976
    116B -> 123B       0.11678
    117B -> 121B       0.12221
    117B -> 122B       0.48089
    118B -> 125B       0.11793

 Excited State  19:  1.000-B2     3.7553 eV  330.16 nm  f=0.0003  <S**2>=0.000
    113A -> 119A       0.20988
    115A -> 119A       0.49323
    115A -> 121A       0.10227
    116A -> 121A       0.30972
    117A -> 120A      -0.22626
    118A -> 122A       0.15475
    118A -> 124A       0.10675
    113B -> 119B       0.20988
    115B -> 119B       0.49323
    115B -> 121B       0.10227
    116B -> 121B       0.30972
    117B -> 120B      -0.22626
    118B -> 122B       0.15475
    118B -> 124B       0.10675

 Excited State  20:  3.000-B2     3.8258 eV  324.07 nm  f=0.0000  <S**2>=2.000
    105A -> 119A      -0.28295
    109A -> 119A       0.15162
    109A -> 121A      -0.15120
    111A -> 121A       0.13682
    113A -> 124A      -0.12630
    116A -> 126A      -0.15516
    116A -> 127A       0.15680
    118A -> 122A       0.11926
    118A -> 127A      -0.42749
    105B -> 119B       0.28295
    109B -> 119B      -0.15162
    109B -> 121B       0.15120
    111B -> 121B      -0.13682
    113B -> 124B       0.12630
    116B -> 126B       0.15516
    116B -> 127B      -0.15680
    118B -> 122B      -0.11926
    118B -> 127B       0.42749

 The electronic state is 1-A1.
 Alpha  occ. eigenvalues --   -9.99859  -9.99840  -9.99696  -9.99693  -9.99505
 Alpha  occ. eigenvalues --   -9.99497  -9.99483  -9.99480  -9.99449  -9.99432
 Alpha  occ. eigenvalues --   -9.99362  -9.99350  -9.99343  -9.99333  -9.99283
 Alpha  occ. eigenvalues --   -9.99280  -9.98526  -9.98523  -9.98494  -9.98490
 Alpha  occ. eigenvalues --   -9.98435  -9.98432  -9.98385  -9.98382  -9.98356
 Alpha  occ. eigenvalues --   -9.98354  -9.98347  -9.98300  -9.98294  -9.98288
 Alpha  occ. eigenvalues --   -9.98287  -9.98279  -9.98250  -9.98250  -9.98209
 Alpha  occ. eigenvalues --   -9.98209  -0.91486  -0.90610  -0.89327  -0.87451
 Alpha  occ. eigenvalues --   -0.87381  -0.85204  -0.83000  -0.81667  -0.81653
 Alpha  occ. eigenvalues --   -0.80741  -0.79384  -0.79358  -0.77421  -0.76542
 Alpha  occ. eigenvalues --   -0.75911  -0.74211  -0.74079  -0.71149  -0.70476
 Alpha  occ. eigenvalues --   -0.66802  -0.66234  -0.66049  -0.65925  -0.64183
 Alpha  occ. eigenvalues --   -0.63381  -0.62965  -0.62582  -0.61470  -0.58946
 Alpha  occ. eigenvalues --   -0.57709  -0.57541  -0.56264  -0.55017  -0.54462
 Alpha  occ. eigenvalues --   -0.54405  -0.52655  -0.51970  -0.51753  -0.50275
 Alpha  occ. eigenvalues --   -0.49714  -0.49536  -0.49031  -0.48889  -0.47646
 Alpha  occ. eigenvalues --   -0.47555  -0.47305  -0.46650  -0.46548  -0.46287
 Alpha  occ. eigenvalues --   -0.45993  -0.45524  -0.45214  -0.44948  -0.44900
 Alpha  occ. eigenvalues --   -0.44708  -0.43923  -0.42980  -0.42459  -0.42358
 Alpha  occ. eigenvalues --   -0.42102  -0.41411  -0.40636  -0.40578  -0.39778
 Alpha  occ. eigenvalues --   -0.39703  -0.38109  -0.38055  -0.36994  -0.36989
 Alpha  occ. eigenvalues --   -0.36959  -0.36357  -0.36137  -0.35626  -0.35451
 Alpha  occ. eigenvalues --   -0.33858  -0.32762  -0.31456  -0.29770  -0.29406
 Alpha  occ. eigenvalues --   -0.26879  -0.26214  -0.22484
 Alpha virt. eigenvalues --   -0.06318  -0.01930  -0.01500   0.00917   0.01251
 Alpha virt. eigenvalues --    0.02863   0.04456   0.05453   0.06582   0.07328
 Alpha virt. eigenvalues --    0.08181   0.09117   0.09803   0.09973   0.10160

  Beta  occ. eigenvalues --   -9.99859  -9.99840  -9.99696  -9.99693  -9.99505
  Beta  occ. eigenvalues --   -9.99497  -9.99483  -9.99480  -9.99449  -9.99432
  Beta  occ. eigenvalues --   -9.99362  -9.99350  -9.99343  -9.99333  -9.99283
  Beta  occ. eigenvalues --   -9.99280  -9.98526  -9.98523  -9.98494  -9.98490
  Beta  occ. eigenvalues --   -9.98435  -9.98432  -9.98385  -9.98382  -9.98356
  Beta  occ. eigenvalues --   -9.98354  -9.98347  -9.98300  -9.98294  -9.98288
  Beta  occ. eigenvalues --   -9.98287  -9.98279  -9.98250  -9.98250  -9.98209
  Beta  occ. eigenvalues --   -9.98209  -0.91486  -0.90610  -0.89327  -0.87451
  Beta  occ. eigenvalues --   -0.87381  -0.85204  -0.83000  -0.81667  -0.81653
  Beta  occ. eigenvalues --   -0.80741  -0.79384  -0.79358  -0.77421  -0.76542
  Beta  occ. eigenvalues --   -0.75911  -0.74211  -0.74079  -0.71149  -0.70476
  Beta  occ. eigenvalues --   -0.66802  -0.66234  -0.66049  -0.65925  -0.64183
  Beta  occ. eigenvalues --   -0.63381  -0.62965  -0.62582  -0.61470  -0.58946
  Beta  occ. eigenvalues --   -0.57709  -0.57541  -0.56264  -0.55017  -0.54462
  Beta  occ. eigenvalues --   -0.54405  -0.52655  -0.51970  -0.51753  -0.50275
  Beta  occ. eigenvalues --   -0.49714  -0.49536  -0.49031  -0.48889  -0.47646
  Beta  occ. eigenvalues --   -0.47555  -0.47305  -0.46650  -0.46548  -0.46287
  Beta  occ. eigenvalues --   -0.45993  -0.45524  -0.45214  -0.44948  -0.44900
  Beta  occ. eigenvalues --   -0.44708  -0.43923  -0.42980  -0.42459  -0.42358
  Beta  occ. eigenvalues --   -0.42102  -0.41411  -0.40636  -0.40578  -0.39778
  Beta  occ. eigenvalues --   -0.39703  -0.38109  -0.38055  -0.36994  -0.36989
  Beta  occ. eigenvalues --   -0.36959  -0.36357  -0.36137  -0.35626  -0.35451
  Beta  occ. eigenvalues --   -0.33858  -0.32762  -0.31456  -0.29770  -0.29406
  Beta  occ. eigenvalues --   -0.26879  -0.26214  -0.22484
  Beta virt. eigenvalues --   -0.06318  -0.01930  -0.01500   0.00917   0.01251
  Beta virt. eigenvalues --    0.02863   0.04456   0.05453   0.06582   0.07328
  Beta virt. eigenvalues --    0.08181   0.09117   0.09803   0.09973   0.10160

 Mulliken charges and spin densities:
               1          2
     1  C   -0.102357  -0.000000
     2  C   -0.168612  -0.000000
     3  C    0.059359   0.000000
     4  C   -0.015018  -0.000000
     5  C    0.192325   0.000000
     6  C   -0.187781   0.000000
     7  C    0.214542  -0.000000
     8  C   -0.015018  -0.000000
     9  C    0.059359   0.000000
    10  C    0.214542  -0.000000
    11  C   -0.168612  -0.000000
    12  H    0.077596   0.000000
    13  C   -0.102357  -0.000000
    14  C   -0.187781   0.000000
    15  C    0.192325   0.000000
    16  C   -0.205115  -0.000000
    17  C   -0.205115  -0.000000
    18  H    0.102785  -0.000000
    19  H    0.077596   0.000000
    20  H    0.099075  -0.000000
    21  H    0.102785  -0.000000
    22  H    0.099075  -0.000000
    23  C   -0.367104   0.000000
    24  C    0.293919  -0.000000
    25  C    0.293919  -0.000000
    26  C   -0.367104   0.000000
    27  H    0.076125  -0.000000
    28  H    0.076125  -0.000000
    29  C   -0.398952  -0.000000
    30  C    0.305567  -0.000000
    31  C    0.305567  -0.000000
    32  C   -0.398952  -0.000000
    33  H    0.086833  -0.000000
    34  H    0.086833  -0.000000
    35  C   -0.388380   0.000000
    36  C    0.284147  -0.000000
    37  C    0.284147  -0.000000
    38  C   -0.388380   0.000000
    39  H    0.087969   0.000000
    40  H    0.087969   0.000000
    41  C   -0.349777   0.000000
    42  C    0.232314   0.000000
    43  C    0.232314   0.000000
    44  C   -0.349777   0.000000
    45  H    0.097848  -0.000000
    46  H    0.088333   0.000000
    47  C   -0.230689  -0.000000
    48  C   -0.230689  -0.000000
    49  H    0.088333   0.000000
    50  C   -0.086057   0.000000
    51  C   -0.086057   0.000000
    52  H    0.097848  -0.000000
    53  H    0.106410  -0.000000
    54  H    0.106410  -0.000000
    55  H    0.094695  -0.000000
    56  H    0.094695  -0.000000
 Sum of Mulliken charges =  -0.00000  -0.00000

 Dipole moment (field-independent basis, Debye):
    X=              0.0000    Y=             -0.0000    Z=              0.0359  Tot=              0.0359
 Quadrupole moment (field-independent basis, Debye-Ang):
   XX=           -218.2145   YY=           -178.2718   ZZ=           -176.1772
   XY=              0.0000   XZ=              0.0000   YZ=             -0.0000

 Normal termination of Gaussian 16 at Mon Feb  3 22:10:08 2020.
